# vtk DataFile Version 4.0
vtk output
ASCII
DATASET POLYDATA
POINTS 520 double
-0.75 -0.5 -0.75 -0.75 -0.5 5.25 -0.75 0.5 5.25 
-0.75 0.5 -0.75 5.25 0.5 -0.75 5.25 -0.5 -0.75 
-0.5 -0.5 3 -0.5 -0.5 -6.12323e-17 -0.5 -0.5 1.5 
-0.353553 -0.5 -0.353553 -0.5 -0.5 4.5 1.5 -0.5 -0.5 
3.06162e-17 -0.5 -0.5 5.25 -0.5 5.25 5.25 0.5 5.25 
-0.353553 -0.5 4.85355 -9.18485e-17 -0.5 5 1.5 -0.5 5 
3 -0.5 5 4.5 -0.5 5 1.5 0.5 5 
-9.18485e-17 0.5 5 -0.353553 0.5 4.85355 -0.5 0.5 4.5 
-0.5 0.5 3 -0.5 0.5 1.5 -0.5 0.5 -6.12323e-17 
1.14645 0.5 -0.353553 1.5 0.5 -0.5 3.06162e-17 0.5 -0.5 
-0.353553 0.5 -0.353553 3 0.5 -0.5 4.5 0.5 -0.5 
4.85355 0.5 -0.353553 5 0.5 0 5 0.5 1.5 
5 0.5 3 5 0.5 4.5 5 -0.5 1.5 
5 -0.5 0 4.85355 -0.5 -0.353553 4.5 -0.5 -0.5 
3 -0.5 -0.5 -0.353553 -0.5 2.64645 -0.353553 -0.5 1.85355 
-0.353553 -0.5 3.35355 -0.353553 -0.5 4.14645 -0.353553 -0.5 0.353553 
-0.353553 -0.5 1.14645 1.14645 -0.5 -0.353553 0.353553 -0.5 -0.353553 
2.64645 -0.5 -0.353553 1.85355 -0.5 -0.353553 4.85355 -0.5 4.85355 
5 -0.5 4.5 5 -0.5 3 4.85355 0.5 4.85355 
4.5 0.5 5 3 0.5 5 0.353553 -0.5 4.85355 
1.14645 -0.5 4.85355 1.85355 -0.5 4.85355 2.64645 -0.5 4.85355 
3.35355 -0.5 4.85355 4.14645 -0.5 4.85355 1.14645 0.5 4.85355 
0.353553 0.5 4.85355 2.64645 0.5 4.85355 1.85355 0.5 4.85355 
-0.353553 0.5 4.14645 -0.353553 0.5 3.35355 -0.353553 0.5 2.64645 
-0.353553 0.5 1.85355 -0.353553 0.5 1.14645 -0.353553 0.5 0.353553 
1 0.5 -6.12323e-17 0.353553 0.5 -0.353553 0.5 0.5 0 
1.85355 0.5 -0.353553 2.64645 0.5 -0.353553 3.35355 0.5 -0.353553 
4.14645 0.5 -0.353553 4.85355 0.5 0.353553 4.85355 0.5 1.14645 
4.85355 0.5 1.85355 4.85355 0.5 2.64645 4.85355 0.5 3.35355 
4.85355 0.5 4.14645 4.85355 -0.5 1.14645 4.85355 -0.5 0.353553 
4.85355 -0.5 2.64645 4.85355 -0.5 1.85355 4.14645 -0.5 -0.353553 
3.35355 -0.5 -0.353553 3.06162e-17 -0.5 2.5 -9.18485e-17 -0.5 2 
-9.18485e-17 -0.5 3.5 3.06162e-17 -0.5 4 -9.18485e-17 -0.5 0.5 
3.06162e-17 -0.5 1 1 -0.5 -6.12323e-17 0.5 -0.5 0 
2.5 -0.5 -6.12323e-17 2 -0.5 0 4.85355 -0.5 4.14645 
4.85355 -0.5 3.35355 4.14645 0.5 4.85355 3.35355 0.5 4.85355 
0.5 -0.5 4.5 1 -0.5 4.5 2 -0.5 4.5 
2.5 -0.5 4.5 3.5 -0.5 4.5 4 -0.5 4.5 
1 0.5 4.5 0.5 0.5 4.5 2.5 0.5 4.5 
2 0.5 4.5 3.06162e-17 0.5 4 -9.18485e-17 0.5 3.5 
3.06162e-17 0.5 2.5 -9.18485e-17 0.5 2 3.06162e-17 0.5 1 
-9.18485e-17 0.5 0.5 1.14645 0.5 0.353553 0.353553 0.5 0.353553 
0.353553 0.5 1.14645 0.5 0.5 1.5 1 0.5 1.5 
1.14645 0.5 1.14645 2 0.5 0 2.5 0.5 -6.12323e-17 
3.5 0.5 0 4 0.5 -6.12323e-17 4.5 0.5 0.5 
4.5 0.5 1 4.5 0.5 2 4.5 0.5 2.5 
4.5 0.5 3.5 4.5 0.5 4 4.5 -0.5 1 
4.5 -0.5 0.5 4.5 -0.5 2.5 4.5 -0.5 2 
4 -0.5 -6.12323e-17 3.5 -0.5 0 0.353553 -0.5 2.64645 
0.353553 -0.5 1.85355 1.14645 -0.5 1.85355 1.5 -0.5 2 
1.5 -0.5 2.5 1.14645 -0.5 2.64645 0.353553 -0.5 3.35355 
0.353553 -0.5 4.14645 0.353553 -0.5 0.353553 0.353553 -0.5 1.14645 
1.14645 -0.5 0.353553 1.14645 -0.5 1.14645 1 -0.5 1.5 
0.5 -0.5 1.5 1.85355 -0.5 0.353553 2.64645 -0.5 0.353553 
2.64645 -0.5 1.14645 2.5 -0.5 1.5 2 -0.5 1.5 
1.85355 -0.5 1.14645 4.5 -0.5 4 4.5 -0.5 3.5 
4 0.5 4.5 3.5 0.5 4.5 0.5 -0.5 3 
1 -0.5 3 1.14645 -0.5 3.35355 1.14645 -0.5 4.14645 
1.85355 -0.5 3.35355 2 -0.5 3 2.5 -0.5 3 
2.64645 -0.5 3.35355 2.64645 -0.5 4.14645 1.85355 -0.5 4.14645 
3.35355 -0.5 3.35355 3.5 -0.5 3 4 -0.5 3 
4.14645 -0.5 3.35355 4.14645 -0.5 4.14645 3.35355 -0.5 4.14645 
1.14645 0.5 4.14645 0.353553 0.5 4.14645 1.85355 0.5 4.14645 
2.64645 0.5 4.14645 1.5 0.5 4 1.5 0.5 3.5 
1.14645 0.5 3.35355 0.353553 0.5 3.35355 0.353553 0.5 1.85355 
0.353553 0.5 2.64645 1.14645 0.5 2.64645 1.5 0.5 2.5 
1.5 0.5 0.5 1.5 0.5 1 1.14645 0.5 1.85355 
1.85355 0.5 0.353553 2.64645 0.5 0.353553 3.35355 0.5 0.353553 
4.14645 0.5 0.353553 3 0.5 0.5 3 0.5 1 
3.35355 0.5 1.14645 4.14645 0.5 1.14645 3.35355 0.5 1.85355 
3 0.5 2 3 0.5 2.5 3.35355 0.5 2.64645 
4.14645 0.5 2.64645 4.14645 0.5 1.85355 4.14645 0.5 4.14645 
4.14645 0.5 3.35355 4.14645 -0.5 1.14645 4.14645 -0.5 0.353553 
4.14645 -0.5 1.85355 4.14645 -0.5 2.64645 4 -0.5 1.5 
3.5 -0.5 1.5 3.35355 -0.5 1.14645 3.35355 -0.5 0.353553 
1.85355 -0.5 1.85355 1.85355 -0.5 2.64645 1.5 -0.5 0.5 
1.5 -0.5 1 3 -0.5 0.5 3 -0.5 1 
2.64645 -0.5 1.85355 2.64645 -0.5 2.64645 3.35355 0.5 4.14645 
4 0.5 3 3.5 0.5 3 3.35355 0.5 3.35355 
1.5 -0.5 3.5 1.5 -0.5 4 3 -0.5 3.5 
3 -0.5 4 3.35355 -0.5 1.85355 3.35355 -0.5 2.64645 
1.85355 0.5 3.35355 3 0.5 4 1 0.5 3 
0.5 0.5 3 1.85355 0.5 2.64645 1.85355 0.5 1.85355 
1.5 0.5 2 1.85355 0.5 1.14645 2.64645 0.5 1.14645 
3.5 0.5 1.5 4 0.5 1.5 2.64645 0.5 2.64645 
2.64645 0.5 1.85355 3 -0.5 2 3 -0.5 2.5 
3 0.5 3.5 2.64645 0.5 3.35355 2 0.5 3 
2.5 0.5 3 2.5 0.5 1.5 2 0.5 1.5 
0.5 0.5 0 0.353553 0.5 -0.353553 0.353553 -0.5 -0.353553 
0.5 -0.5 0 0.353553 0.5 0.353553 0.353553 -0.5 0.353553 
3.06162e-17 0.5 -0.5 3.06162e-17 -0.5 -0.5 -9.18485e-17 0.5 0.5 
-9.18485e-17 -0.5 0.5 -0.353553 0.5 -0.353553 -0.353553 -0.5 -0.353553 
-0.353553 0.5 0.353553 -0.353553 -0.5 0.353553 -0.5 0.5 -6.12323e-17 
-0.5 -0.5 -6.12323e-17 0.5 0.5 1.5 0.353553 0.5 1.14645 
0.353553 -0.5 1.14645 0.5 -0.5 1.5 0.353553 0.5 1.85355 
0.353553 -0.5 1.85355 3.06162e-17 0.5 1 3.06162e-17 -0.5 1 
-9.18485e-17 0.5 2 -9.18485e-17 -0.5 2 -0.353553 0.5 1.14645 
-0.353553 -0.5 1.14645 -0.353553 0.5 1.85355 -0.353553 -0.5 1.85355 
-0.5 0.5 1.5 -0.5 -0.5 1.5 0.5 0.5 3 
0.353553 0.5 2.64645 0.353553 -0.5 2.64645 0.5 -0.5 3 
0.353553 0.5 3.35355 0.353553 -0.5 3.35355 3.06162e-17 0.5 2.5 
3.06162e-17 -0.5 2.5 -9.18485e-17 0.5 3.5 -9.18485e-17 -0.5 3.5 
-0.353553 0.5 2.64645 -0.353553 -0.5 2.64645 -0.353553 0.5 3.35355 
-0.353553 -0.5 3.35355 -0.5 0.5 3 -0.5 -0.5 3 
0.5 0.5 4.5 0.353553 0.5 4.14645 0.353553 -0.5 4.14645 
0.5 -0.5 4.5 0.353553 0.5 4.85355 0.353553 -0.5 4.85355 
3.06162e-17 0.5 4 3.06162e-17 -0.5 4 -9.18485e-17 0.5 5 
-9.18485e-17 -0.5 5 -0.353553 0.5 4.14645 -0.353553 -0.5 4.14645 
-0.353553 0.5 4.85355 -0.353553 -0.5 4.85355 -0.5 0.5 4.5 
-0.5 -0.5 4.5 2 0.5 0 1.85355 0.5 -0.353553 
1.85355 -0.5 -0.353553 2 -0.5 0 1.85355 0.5 0.353553 
1.85355 -0.5 0.353553 1.5 0.5 -0.5 1.5 -0.5 -0.5 
1.5 0.5 0.5 1.5 -0.5 0.5 1.14645 0.5 -0.353553 
1.14645 -0.5 -0.353553 1.14645 0.5 0.353553 1.14645 -0.5 0.353553 
1 0.5 -6.12323e-17 1 -0.5 -6.12323e-17 2 0.5 1.5 
1.85355 0.5 1.14645 1.85355 -0.5 1.14645 2 -0.5 1.5 
1.85355 0.5 1.85355 1.85355 -0.5 1.85355 1.5 0.5 1 
1.5 -0.5 1 1.5 0.5 2 1.5 -0.5 2 
1.14645 0.5 1.14645 1.14645 -0.5 1.14645 1.14645 0.5 1.85355 
1.14645 -0.5 1.85355 1 0.5 1.5 1 -0.5 1.5 
2 0.5 3 1.85355 0.5 2.64645 1.85355 -0.5 2.64645 
2 -0.5 3 1.85355 0.5 3.35355 1.85355 -0.5 3.35355 
1.5 0.5 2.5 1.5 -0.5 2.5 1.5 0.5 3.5 
1.5 -0.5 3.5 1.14645 0.5 2.64645 1.14645 -0.5 2.64645 
1.14645 0.5 3.35355 1.14645 -0.5 3.35355 1 0.5 3 
1 -0.5 3 2 0.5 4.5 1.85355 0.5 4.14645 
1.85355 -0.5 4.14645 2 -0.5 4.5 1.85355 0.5 4.85355 
1.85355 -0.5 4.85355 1.5 0.5 4 1.5 -0.5 4 
1.5 0.5 5 1.5 -0.5 5 1.14645 0.5 4.14645 
1.14645 -0.5 4.14645 1.14645 0.5 4.85355 1.14645 -0.5 4.85355 
1 0.5 4.5 1 -0.5 4.5 3.5 0.5 0 
3.35355 0.5 -0.353553 3.35355 -0.5 -0.353553 3.5 -0.5 0 
3.35355 0.5 0.353553 3.35355 -0.5 0.353553 3 0.5 -0.5 
3 -0.5 -0.5 3 0.5 0.5 3 -0.5 0.5 
2.64645 0.5 -0.353553 2.64645 -0.5 -0.353553 2.64645 0.5 0.353553 
2.64645 -0.5 0.353553 2.5 0.5 -6.12323e-17 2.5 -0.5 -6.12323e-17 
3.5 0.5 1.5 3.35355 0.5 1.14645 3.35355 -0.5 1.14645 
3.5 -0.5 1.5 3.35355 0.5 1.85355 3.35355 -0.5 1.85355 
3 0.5 1 3 -0.5 1 3 0.5 2 
3 -0.5 2 2.64645 0.5 1.14645 2.64645 -0.5 1.14645 
2.64645 0.5 1.85355 2.64645 -0.5 1.85355 2.5 0.5 1.5 
2.5 -0.5 1.5 3.5 0.5 3 3.35355 0.5 2.64645 
3.35355 -0.5 2.64645 3.5 -0.5 3 3.35355 0.5 3.35355 
3.35355 -0.5 3.35355 3 0.5 2.5 3 -0.5 2.5 
3 0.5 3.5 3 -0.5 3.5 2.64645 0.5 2.64645 
2.64645 -0.5 2.64645 2.64645 0.5 3.35355 2.64645 -0.5 3.35355 
2.5 0.5 3 2.5 -0.5 3 3.5 0.5 4.5 
3.35355 0.5 4.14645 3.35355 -0.5 4.14645 3.5 -0.5 4.5 
3.35355 0.5 4.85355 3.35355 -0.5 4.85355 3 0.5 4 
3 -0.5 4 3 0.5 5 3 -0.5 5 
2.64645 0.5 4.14645 2.64645 -0.5 4.14645 2.64645 0.5 4.85355 
2.64645 -0.5 4.85355 2.5 0.5 4.5 2.5 -0.5 4.5 
5 0.5 0 4.85355 0.5 -0.353553 4.85355 -0.5 -0.353553 
5 -0.5 0 4.85355 0.5 0.353553 4.85355 -0.5 0.353553 
4.5 0.5 -0.5 4.5 -0.5 -0.5 4.5 0.5 0.5 
4.5 -0.5 0.5 4.14645 0.5 -0.353553 4.14645 -0.5 -0.353553 
4.14645 0.5 0.353553 4.14645 -0.5 0.353553 4 0.5 -6.12323e-17 
4 -0.5 -6.12323e-17 5 0.5 1.5 4.85355 0.5 1.14645 
4.85355 -0.5 1.14645 5 -0.5 1.5 4.85355 0.5 1.85355 
4.85355 -0.5 1.85355 4.5 0.5 1 4.5 -0.5 1 
4.5 0.5 2 4.5 -0.5 2 4.14645 0.5 1.14645 
4.14645 -0.5 1.14645 4.14645 0.5 1.85355 4.14645 -0.5 1.85355 
4 0.5 1.5 4 -0.5 1.5 5 0.5 3 
4.85355 0.5 2.64645 4.85355 -0.5 2.64645 5 -0.5 3 
4.85355 0.5 3.35355 4.85355 -0.5 3.35355 4.5 0.5 2.5 
4.5 -0.5 2.5 4.5 0.5 3.5 4.5 -0.5 3.5 
4.14645 0.5 2.64645 4.14645 -0.5 2.64645 4.14645 0.5 3.35355 
4.14645 -0.5 3.35355 4 0.5 3 4 -0.5 3 
5 0.5 4.5 4.85355 0.5 4.14645 4.85355 -0.5 4.14645 
5 -0.5 4.5 4.85355 0.5 4.85355 4.85355 -0.5 4.85355 
4.5 0.5 4 4.5 -0.5 4 4.5 0.5 5 
4.5 -0.5 5 4.14645 0.5 4.14645 4.14645 -0.5 4.14645 
4.14645 0.5 4.85355 4.14645 -0.5 4.85355 4 0.5 4.5 
4 -0.5 4.5 
POLYGONS 273 1407
4 0 1 2 3 
4 5 4 14 13 
4 0 3 4 5 
4 1 13 14 2 
4 171 170 146 151 
8 146 94 95 147 148 149 150 151 
4 149 225 226 150 
8 225 164 163 231 232 176 175 226 
4 231 256 257 232 
4 256 241 242 257 
8 241 222 221 219 220 182 181 242 
4 219 143 142 220 
4 147 159 158 148 
4 94 43 44 95 
4 43 6 8 44 
4 6 0 7 8 
4 7 47 48 8 
4 47 98 99 48 
4 98 154 155 99 
8 154 101 100 156 157 158 159 155 
4 156 227 228 157 
4 227 160 165 228 
8 160 103 102 161 162 163 164 165 
4 161 229 230 162 
3 0 9 7 
4 6 10 1 0 
3 10 15 1 
3 15 16 1 
3 16 17 1 
3 17 18 1 
4 18 19 13 1 
3 19 53 13 
3 53 54 13 
3 54 55 13 
3 55 38 13 
4 38 39 5 13 
3 39 40 5 
3 40 41 5 
3 41 42 5 
3 42 11 5 
4 11 12 0 5 
3 12 9 0 
4 11 49 50 12 
4 49 100 101 50 
4 42 51 52 11 
4 51 102 103 52 
4 41 92 93 42 
4 92 144 145 93 
4 38 88 89 39 
4 88 140 141 89 
4 140 217 218 141 
8 217 221 222 223 224 145 144 218 
4 223 230 229 224 
4 55 90 91 38 
4 90 142 143 91 
4 54 104 105 55 
4 104 166 167 105 
4 18 63 64 19 
4 63 112 113 64 
4 17 61 62 18 
4 61 110 111 62 
4 16 59 60 17 
4 59 108 109 60 
4 6 45 46 10 
4 45 96 97 46 
4 96 152 153 97 
8 152 170 171 172 173 109 108 153 
4 172 237 238 173 
4 237 174 179 238 
8 174 175 176 177 178 111 110 179 
4 177 239 240 178 
4 239 180 185 240 
8 180 181 182 183 184 113 112 185 
4 183 167 166 184 
4 131 130 201 202 
8 201 198 199 250 251 206 205 202 
4 250 263 262 251 
4 198 124 129 199 
8 124 75 77 125 126 127 128 129 
4 127 194 200 128 
6 194 197 247 248 249 200 
8 247 260 261 254 255 262 263 248 
4 254 211 210 255 
4 260 243 259 261 
6 243 244 233 236 258 259 
8 233 169 168 215 216 234 235 236 
4 215 139 138 216 
6 243 191 190 188 189 244 
4 188 117 116 189 
6 194 121 120 195 196 197 
4 195 246 245 196 
4 125 123 122 126 
4 75 27 76 77 
3 27 29 76 
4 27 28 3 29 
3 3 30 29 
3 28 31 3 
4 31 32 4 3 
3 32 33 4 
3 33 34 4 
3 34 35 4 
3 35 36 4 
4 36 37 14 4 
3 37 56 14 
3 56 57 14 
3 57 58 14 
3 58 20 14 
4 20 21 2 14 
3 21 22 2 
3 22 23 2 
3 23 24 2 
3 24 25 2 
4 25 26 3 2 
3 26 30 3 
4 25 73 74 26 
4 73 122 123 74 
4 24 71 72 25 
4 71 120 121 72 
4 23 69 70 24 
4 69 118 119 70 
4 20 65 66 21 
4 65 114 115 66 
4 114 186 187 115 
8 186 190 191 192 193 119 118 187 
4 192 245 246 193 
4 58 67 68 20 
4 67 116 117 68 
4 57 106 107 58 
4 106 168 169 107 
4 36 86 87 37 
4 86 138 139 87 
4 35 84 85 36 
4 84 136 137 85 
4 34 82 83 35 
4 82 134 135 83 
4 31 80 81 32 
4 80 132 133 81 
4 132 203 204 133 
8 203 205 206 207 208 135 134 204 
4 207 252 253 208 
4 252 209 214 253 
8 209 210 211 212 213 137 136 214 
4 212 235 234 213 
4 28 78 79 31 
4 78 130 131 79 
4 264 265 266 267 
4 265 270 271 266 
4 270 274 275 271 
4 274 278 279 275 
4 278 276 277 279 
4 276 272 273 277 
4 272 268 269 273 
4 268 264 267 269 
4 280 281 282 283 
4 281 286 287 282 
4 286 290 291 287 
4 290 294 295 291 
4 294 292 293 295 
4 292 288 289 293 
4 288 284 285 289 
4 284 280 283 285 
4 296 297 298 299 
4 297 302 303 298 
4 302 306 307 303 
4 306 310 311 307 
4 310 308 309 311 
4 308 304 305 309 
4 304 300 301 305 
4 300 296 299 301 
4 312 313 314 315 
4 313 318 319 314 
4 318 322 323 319 
4 322 326 327 323 
4 326 324 325 327 
4 324 320 321 325 
4 320 316 317 321 
4 316 312 315 317 
4 328 329 330 331 
4 329 334 335 330 
4 334 338 339 335 
4 338 342 343 339 
4 342 340 341 343 
4 340 336 337 341 
4 336 332 333 337 
4 332 328 331 333 
4 344 345 346 347 
4 345 350 351 346 
4 350 354 355 351 
4 354 358 359 355 
4 358 356 357 359 
4 356 352 353 357 
4 352 348 349 353 
4 348 344 347 349 
4 360 361 362 363 
4 361 366 367 362 
4 366 370 371 367 
4 370 374 375 371 
4 374 372 373 375 
4 372 368 369 373 
4 368 364 365 369 
4 364 360 363 365 
4 376 377 378 379 
4 377 382 383 378 
4 382 386 387 383 
4 386 390 391 387 
4 390 388 389 391 
4 388 384 385 389 
4 384 380 381 385 
4 380 376 379 381 
4 392 393 394 395 
4 393 398 399 394 
4 398 402 403 399 
4 402 406 407 403 
4 406 404 405 407 
4 404 400 401 405 
4 400 396 397 401 
4 396 392 395 397 
4 408 409 410 411 
4 409 414 415 410 
4 414 418 419 415 
4 418 422 423 419 
4 422 420 421 423 
4 420 416 417 421 
4 416 412 413 417 
4 412 408 411 413 
4 424 425 426 427 
4 425 430 431 426 
4 430 434 435 431 
4 434 438 439 435 
4 438 436 437 439 
4 436 432 433 437 
4 432 428 429 433 
4 428 424 427 429 
4 440 441 442 443 
4 441 446 447 442 
4 446 450 451 447 
4 450 454 455 451 
4 454 452 453 455 
4 452 448 449 453 
4 448 444 445 449 
4 444 440 443 445 
4 456 457 458 459 
4 457 462 463 458 
4 462 466 467 463 
4 466 470 471 467 
4 470 468 469 471 
4 468 464 465 469 
4 464 460 461 465 
4 460 456 459 461 
4 472 473 474 475 
4 473 478 479 474 
4 478 482 483 479 
4 482 486 487 483 
4 486 484 485 487 
4 484 480 481 485 
4 480 476 477 481 
4 476 472 475 477 
4 488 489 490 491 
4 489 494 495 490 
4 494 498 499 495 
4 498 502 503 499 
4 502 500 501 503 
4 500 496 497 501 
4 496 492 493 497 
4 492 488 491 493 
4 504 505 506 507 
4 505 510 511 506 
4 510 514 515 511 
4 514 518 519 515 
4 518 516 517 519 
4 516 512 513 517 
4 512 508 509 513 
4 508 504 507 509 

CELL_DATA 273
FIELD FieldData 2
OrigCellIdsA 1 273 int
0 1 4 5 2 2 2 2 2 
2 2 2 2 2 2 2 2 2 
2 2 2 2 2 2 2 2 2 
2 2 2 2 2 2 2 2 2 
2 2 2 2 2 2 2 2 2 
2 2 2 2 2 2 2 2 2 
2 2 2 2 2 2 2 2 2 
2 2 2 2 2 2 2 2 2 
2 2 3 3 3 3 3 3 3 
3 3 3 3 3 3 3 3 3 
3 3 3 3 3 3 3 3 3 
3 3 3 3 3 3 3 3 3 
3 3 3 3 3 3 3 3 3 
3 3 3 3 3 3 3 3 3 
3 3 3 3 3 3 3 3 3 
3 3 3 3 3 3 3 3 3 
3 -1 -1 -1 -1 -1 -1 -1 -1 
-1 -1 -1 -1 -1 -1 -1 -1 -1 
-1 -1 -1 -1 -1 -1 -1 -1 -1 
-1 -1 -1 -1 -1 -1 -1 -1 -1 
-1 -1 -1 -1 -1 -1 -1 -1 -1 
-1 -1 -1 -1 -1 -1 -1 -1 -1 
-1 -1 -1 -1 -1 -1 -1 -1 -1 
-1 -1 -1 -1 -1 -1 -1 -1 -1 
-1 -1 -1 -1 -1 -1 -1 -1 -1 
-1 -1 -1 -1 -1 -1 -1 -1 -1 
-1 -1 -1 -1 -1 -1 -1 -1 -1 
-1 -1 -1 -1 -1 -1 -1 -1 -1 
-1 -1 -1 -1 -1 -1 -1 -1 -1 
-1 -1 -1 -1 -1 -1 -1 -1 -1 
-1 -1 -1 
OrigCellIdsB 1 273 int
-1 -1 -1 -1 -1 -1 -1 -1 -1 
-1 -1 -1 -1 -1 -1 -1 -1 -1 
-1 -1 -1 -1 -1 -1 -1 -1 -1 
-1 -1 -1 -1 -1 -1 -1 -1 -1 
-1 -1 -1 -1 -1 -1 -1 -1 -1 
-1 -1 -1 -1 -1 -1 -1 -1 -1 
-1 -1 -1 -1 -1 -1 -1 -1 -1 
-1 -1 -1 -1 -1 -1 -1 -1 -1 
-1 -1 -1 -1 -1 -1 -1 -1 -1 
-1 -1 -1 -1 -1 -1 -1 -1 -1 
-1 -1 -1 -1 -1 -1 -1 -1 -1 
-1 -1 -1 -1 -1 -1 -1 -1 -1 
-1 -1 -1 -1 -1 -1 -1 -1 -1 
-1 -1 -1 -1 -1 -1 -1 -1 -1 
-1 -1 -1 -1 -1 -1 -1 -1 -1 
-1 -1 -1 -1 -1 -1 -1 -1 -1 
-1 0 1 2 3 4 5 6 7 
10 11 12 13 14 15 16 17 20 
21 22 23 24 25 26 27 30 31 
32 33 34 35 36 37 40 41 42 
43 44 45 46 47 50 51 52 53 
54 55 56 57 60 61 62 63 64 
65 66 67 70 71 72 73 74 75 
76 77 80 81 82 83 84 85 86 
87 90 91 92 93 94 95 96 97 
100 101 102 103 104 105 106 107 110 
111 112 113 114 115 116 117 120 121 
122 123 124 125 126 127 130 131 132 
133 134 135 136 137 140 141 142 143 
144 145 146 147 150 151 152 153 154 
155 156 157 
POINT_DATA 520
SCALARS RegionId vtkIdType
LOOKUP_TABLE default
0 0 0 0 0 0 0 0 0 
0 0 0 0 0 0 0 0 0 
0 0 0 0 0 0 0 0 0 
0 0 0 0 0 0 0 0 0 
0 0 0 0 0 0 0 0 0 
0 0 0 0 0 0 0 0 0 
0 0 0 0 0 0 0 0 0 
0 0 0 0 0 0 0 0 0 
0 0 0 0 0 0 0 0 0 
0 0 0 0 0 0 0 0 0 
0 0 0 0 0 0 0 0 0 
0 0 0 0 0 0 0 0 0 
0 0 0 0 0 0 0 0 0 
0 0 0 0 0 0 0 0 0 
0 0 0 0 0 0 0 0 0 
0 0 0 0 0 0 0 0 0 
0 0 0 0 0 0 0 0 0 
0 0 0 0 0 0 0 0 0 
0 0 0 0 0 0 0 0 0 
0 0 0 0 0 0 0 0 0 
0 0 0 0 0 0 0 0 0 
0 0 0 0 0 0 0 0 0 
0 0 0 0 0 0 0 0 0 
0 0 0 0 0 0 0 0 0 
0 0 0 0 0 0 0 0 0 
0 0 0 0 0 0 0 0 0 
0 0 0 0 0 0 0 0 0 
0 0 0 0 0 0 0 0 0 
0 0 0 0 0 0 0 0 0 
0 0 0 1 1 1 1 1 1 
1 1 1 1 1 1 1 1 1 
1 2 2 2 2 2 2 2 2 
2 2 2 2 2 2 2 2 3 
3 3 3 3 3 3 3 3 3 
3 3 3 3 3 3 4 4 4 
4 4 4 4 4 4 4 4 4 
4 4 4 4 5 5 5 5 5 
5 5 5 5 5 5 5 5 5 
5 5 6 6 6 6 6 6 6 
6 6 6 6 6 6 6 6 6 
7 7 7 7 7 7 7 7 7 
7 7 7 7 7 7 7 8 8 
8 8 8 8 8 8 8 8 8 
8 8 8 8 8 9 9 9 9 
9 9 9 9 9 9 9 9 9 
9 9 9 10 10 10 10 10 10 
10 10 10 10 10 10 10 10 10 
10 11 11 11 11 11 11 11 11 
11 11 11 11 11 11 11 11 12 
12 12 12 12 12 12 12 12 12 
12 12 12 12 12 12 13 13 13 
13 13 13 13 13 13 13 13 13 
13 13 13 13 14 14 14 14 14 
14 14 14 14 14 14 14 14 14 
14 14 15 15 15 15 15 15 15 
15 15 15 15 15 15 15 15 15 
16 16 16 16 16 16 16 16 16 
16 16 16 16 16 16 16 
