# vtk DataFile Version 4.0
vtk output
ASCII
DATASET POLYDATA
POINTS 520 double
-0.75 -0.5 -0.75 -0.75 -0.5 5.25 -0.75 0.5 5.25 
-0.75 0.5 -0.75 5.25 0.5 -0.75 5.25 -0.5 -0.75 
-0.5 -0.5 3 -0.5 -0.5 -6.12323e-17 -0.5 -0.5 1.5 
-0.353553 -0.5 -0.353553 -0.5 -0.5 4.5 1.5 -0.5 -0.5 
3.06162e-17 -0.5 -0.5 5.25 -0.5 5.25 5.25 0.5 5.25 
-0.353553 -0.5 4.85355 -9.18485e-17 -0.5 5 1.5 -0.5 5 
3 -0.5 5 4.5 -0.5 5 2 0.5 0 
1.85355 0.5 0.353553 1.5 0.5 0.5 1.14645 0.5 0.353553 
1 0.5 -6.12323e-17 1.14645 0.5 -0.353553 1.5 0.5 -0.5 
1.85355 0.5 -0.353553 2.5 0.5 -6.12323e-17 2.64645 0.5 -0.353553 
3 0.5 -0.5 3.35355 0.5 -0.353553 3.5 0.5 0 
3.35355 0.5 0.353553 3 0.5 0.5 3 0.5 1 
3.35355 0.5 1.14645 3.5 0.5 1.5 3.35355 0.5 1.85355 
3 0.5 2 3 0.5 2.5 3.35355 0.5 2.64645 
3.5 0.5 3 4 0.5 3 4.14645 0.5 2.64645 
4.5 0.5 2.5 4.5 0.5 2 4.14645 0.5 1.85355 
4 0.5 1.5 4.14645 0.5 1.14645 4.5 0.5 1 
4.5 0.5 0.5 4.14645 0.5 0.353553 4 0.5 -6.12323e-17 
4.14645 0.5 -0.353553 4.5 0.5 -0.5 4.85355 0.5 -0.353553 
5 0.5 0 4.85355 0.5 0.353553 4.85355 0.5 1.14645 
5 0.5 1.5 4.85355 0.5 1.85355 4.85355 0.5 2.64645 
5 0.5 3 4.85355 0.5 3.35355 4.5 0.5 3.5 
4.5 0.5 4 4.85355 0.5 4.14645 5 0.5 4.5 
4.85355 0.5 4.85355 4.5 0.5 5 4.14645 0.5 4.85355 
4 0.5 4.5 3.5 0.5 4.5 3.35355 0.5 4.85355 
3 0.5 5 2.64645 0.5 4.85355 2.5 0.5 4.5 
2 0.5 4.5 1.85355 0.5 4.85355 1.5 0.5 5 
1.14645 0.5 4.85355 1 0.5 4.5 1.14645 0.5 4.14645 
1.5 0.5 4 1.5 0.5 3.5 1.14645 0.5 3.35355 
1 0.5 3 0.5 0.5 3 0.353553 0.5 3.35355 
-9.18485e-17 0.5 3.5 3.06162e-17 0.5 4 0.353553 0.5 4.14645 
0.5 0.5 4.5 0.353553 0.5 4.85355 -9.18485e-17 0.5 5 
-0.353553 0.5 4.85355 -0.5 0.5 4.5 -0.353553 0.5 4.14645 
-0.353553 0.5 3.35355 -0.5 0.5 3 -0.353553 0.5 2.64645 
3.06162e-17 0.5 2.5 -9.18485e-17 0.5 2 -0.353553 0.5 1.85355 
-0.5 0.5 1.5 -0.353553 0.5 1.14645 3.06162e-17 0.5 1 
-9.18485e-17 0.5 0.5 -0.353553 0.5 0.353553 -0.5 0.5 -6.12323e-17 
-0.353553 0.5 -0.353553 3.06162e-17 0.5 -0.5 0.353553 0.5 -0.353553 
0.5 0.5 0 0.353553 0.5 0.353553 0.353553 0.5 1.14645 
0.5 0.5 1.5 0.353553 0.5 1.85355 0.353553 0.5 2.64645 
1.14645 0.5 2.64645 1.5 0.5 2.5 1.85355 0.5 2.64645 
2 0.5 3 1.85355 0.5 3.35355 1.85355 0.5 4.14645 
2.64645 0.5 4.14645 3 0.5 4 3.35355 0.5 4.14645 
4.14645 0.5 4.14645 4.14645 0.5 3.35355 3.35355 0.5 3.35355 
3 0.5 3.5 2.64645 0.5 3.35355 2.5 0.5 3 
2.64645 0.5 2.64645 2.64645 0.5 1.85355 2.5 0.5 1.5 
2 0.5 1.5 1.85355 0.5 1.85355 1.5 0.5 2 
1.14645 0.5 1.85355 1 0.5 1.5 1.14645 0.5 1.14645 
1.5 0.5 1 1.85355 0.5 1.14645 2.64645 0.5 1.14645 
2.64645 0.5 0.353553 5 -0.5 1.5 5 -0.5 0 
4.85355 -0.5 -0.353553 4.5 -0.5 -0.5 3 -0.5 -0.5 
-0.353553 -0.5 2.64645 -0.353553 -0.5 1.85355 -0.353553 -0.5 3.35355 
-0.353553 -0.5 4.14645 -0.353553 -0.5 0.353553 -0.353553 -0.5 1.14645 
1.14645 -0.5 -0.353553 0.353553 -0.5 -0.353553 2.64645 -0.5 -0.353553 
1.85355 -0.5 -0.353553 4.85355 -0.5 4.85355 5 -0.5 4.5 
5 -0.5 3 0.353553 -0.5 4.85355 1.14645 -0.5 4.85355 
1.85355 -0.5 4.85355 2.64645 -0.5 4.85355 3.35355 -0.5 4.85355 
4.14645 -0.5 4.85355 4.85355 -0.5 1.14645 4.85355 -0.5 0.353553 
4.85355 -0.5 2.64645 4.85355 -0.5 1.85355 4.14645 -0.5 -0.353553 
3.35355 -0.5 -0.353553 3.06162e-17 -0.5 2.5 -9.18485e-17 -0.5 2 
-9.18485e-17 -0.5 3.5 3.06162e-17 -0.5 4 -9.18485e-17 -0.5 0.5 
3.06162e-17 -0.5 1 1 -0.5 -6.12323e-17 0.5 -0.5 0 
2.5 -0.5 -6.12323e-17 2 -0.5 0 4.85355 -0.5 4.14645 
4.85355 -0.5 3.35355 0.5 -0.5 4.5 1 -0.5 4.5 
2 -0.5 4.5 2.5 -0.5 4.5 3.5 -0.5 4.5 
4 -0.5 4.5 4.5 -0.5 1 4.5 -0.5 0.5 
4.5 -0.5 2.5 4.5 -0.5 2 4 -0.5 -6.12323e-17 
3.5 -0.5 0 0.353553 -0.5 2.64645 0.353553 -0.5 1.85355 
1.14645 -0.5 1.85355 1.5 -0.5 2 1.5 -0.5 2.5 
1.14645 -0.5 2.64645 0.353553 -0.5 3.35355 0.353553 -0.5 4.14645 
0.353553 -0.5 0.353553 0.353553 -0.5 1.14645 1.14645 -0.5 0.353553 
1.14645 -0.5 1.14645 1 -0.5 1.5 0.5 -0.5 1.5 
1.85355 -0.5 0.353553 2.64645 -0.5 0.353553 2.64645 -0.5 1.14645 
2.5 -0.5 1.5 2 -0.5 1.5 1.85355 -0.5 1.14645 
4.5 -0.5 4 4.5 -0.5 3.5 0.5 -0.5 3 
1 -0.5 3 1.14645 -0.5 3.35355 1.14645 -0.5 4.14645 
1.85355 -0.5 3.35355 2 -0.5 3 2.5 -0.5 3 
2.64645 -0.5 3.35355 2.64645 -0.5 4.14645 1.85355 -0.5 4.14645 
3.35355 -0.5 3.35355 3.5 -0.5 3 4 -0.5 3 
4.14645 -0.5 3.35355 4.14645 -0.5 4.14645 3.35355 -0.5 4.14645 
4.14645 -0.5 1.14645 4.14645 -0.5 0.353553 4.14645 -0.5 1.85355 
4.14645 -0.5 2.64645 4 -0.5 1.5 3.5 -0.5 1.5 
3.35355 -0.5 1.14645 3.35355 -0.5 0.353553 1.85355 -0.5 1.85355 
1.85355 -0.5 2.64645 1.5 -0.5 0.5 1.5 -0.5 1 
3 -0.5 0.5 3 -0.5 1 2.64645 -0.5 1.85355 
2.64645 -0.5 2.64645 1.5 -0.5 3.5 1.5 -0.5 4 
3 -0.5 3.5 3 -0.5 4 3.35355 -0.5 1.85355 
3.35355 -0.5 2.64645 3 -0.5 2 3 -0.5 2.5 
0.5 0.5 0 0.353553 0.5 -0.353553 0.353553 -0.5 -0.353553 
0.5 -0.5 0 0.353553 0.5 0.353553 0.353553 -0.5 0.353553 
3.06162e-17 0.5 -0.5 3.06162e-17 -0.5 -0.5 -9.18485e-17 0.5 0.5 
-9.18485e-17 -0.5 0.5 -0.353553 0.5 -0.353553 -0.353553 -0.5 -0.353553 
-0.353553 0.5 0.353553 -0.353553 -0.5 0.353553 -0.5 0.5 -6.12323e-17 
-0.5 -0.5 -6.12323e-17 0.5 0.5 1.5 0.353553 0.5 1.14645 
0.353553 -0.5 1.14645 0.5 -0.5 1.5 0.353553 0.5 1.85355 
0.353553 -0.5 1.85355 3.06162e-17 0.5 1 3.06162e-17 -0.5 1 
-9.18485e-17 0.5 2 -9.18485e-17 -0.5 2 -0.353553 0.5 1.14645 
-0.353553 -0.5 1.14645 -0.353553 0.5 1.85355 -0.353553 -0.5 1.85355 
-0.5 0.5 1.5 -0.5 -0.5 1.5 0.5 0.5 3 
0.353553 0.5 2.64645 0.353553 -0.5 2.64645 0.5 -0.5 3 
0.353553 0.5 3.35355 0.353553 -0.5 3.35355 3.06162e-17 0.5 2.5 
3.06162e-17 -0.5 2.5 -9.18485e-17 0.5 3.5 -9.18485e-17 -0.5 3.5 
-0.353553 0.5 2.64645 -0.353553 -0.5 2.64645 -0.353553 0.5 3.35355 
-0.353553 -0.5 3.35355 -0.5 0.5 3 -0.5 -0.5 3 
0.5 0.5 4.5 0.353553 0.5 4.14645 0.353553 -0.5 4.14645 
0.5 -0.5 4.5 0.353553 0.5 4.85355 0.353553 -0.5 4.85355 
3.06162e-17 0.5 4 3.06162e-17 -0.5 4 -9.18485e-17 0.5 5 
-9.18485e-17 -0.5 5 -0.353553 0.5 4.14645 -0.353553 -0.5 4.14645 
-0.353553 0.5 4.85355 -0.353553 -0.5 4.85355 -0.5 0.5 4.5 
-0.5 -0.5 4.5 2 0.5 0 1.85355 0.5 -0.353553 
1.85355 -0.5 -0.353553 2 -0.5 0 1.85355 0.5 0.353553 
1.85355 -0.5 0.353553 1.5 0.5 -0.5 1.5 -0.5 -0.5 
1.5 0.5 0.5 1.5 -0.5 0.5 1.14645 0.5 -0.353553 
1.14645 -0.5 -0.353553 1.14645 0.5 0.353553 1.14645 -0.5 0.353553 
1 0.5 -6.12323e-17 1 -0.5 -6.12323e-17 2 0.5 1.5 
1.85355 0.5 1.14645 1.85355 -0.5 1.14645 2 -0.5 1.5 
1.85355 0.5 1.85355 1.85355 -0.5 1.85355 1.5 0.5 1 
1.5 -0.5 1 1.5 0.5 2 1.5 -0.5 2 
1.14645 0.5 1.14645 1.14645 -0.5 1.14645 1.14645 0.5 1.85355 
1.14645 -0.5 1.85355 1 0.5 1.5 1 -0.5 1.5 
2 0.5 3 1.85355 0.5 2.64645 1.85355 -0.5 2.64645 
2 -0.5 3 1.85355 0.5 3.35355 1.85355 -0.5 3.35355 
1.5 0.5 2.5 1.5 -0.5 2.5 1.5 0.5 3.5 
1.5 -0.5 3.5 1.14645 0.5 2.64645 1.14645 -0.5 2.64645 
1.14645 0.5 3.35355 1.14645 -0.5 3.35355 1 0.5 3 
1 -0.5 3 2 0.5 4.5 1.85355 0.5 4.14645 
1.85355 -0.5 4.14645 2 -0.5 4.5 1.85355 0.5 4.85355 
1.85355 -0.5 4.85355 1.5 0.5 4 1.5 -0.5 4 
1.5 0.5 5 1.5 -0.5 5 1.14645 0.5 4.14645 
1.14645 -0.5 4.14645 1.14645 0.5 4.85355 1.14645 -0.5 4.85355 
1 0.5 4.5 1 -0.5 4.5 3.5 0.5 0 
3.35355 0.5 -0.353553 3.35355 -0.5 -0.353553 3.5 -0.5 0 
3.35355 0.5 0.353553 3.35355 -0.5 0.353553 3 0.5 -0.5 
3 -0.5 -0.5 3 0.5 0.5 3 -0.5 0.5 
2.64645 0.5 -0.353553 2.64645 -0.5 -0.353553 2.64645 0.5 0.353553 
2.64645 -0.5 0.353553 2.5 0.5 -6.12323e-17 2.5 -0.5 -6.12323e-17 
3.5 0.5 1.5 3.35355 0.5 1.14645 3.35355 -0.5 1.14645 
3.5 -0.5 1.5 3.35355 0.5 1.85355 3.35355 -0.5 1.85355 
3 0.5 1 3 -0.5 1 3 0.5 2 
3 -0.5 2 2.64645 0.5 1.14645 2.64645 -0.5 1.14645 
2.64645 0.5 1.85355 2.64645 -0.5 1.85355 2.5 0.5 1.5 
2.5 -0.5 1.5 3.5 0.5 3 3.35355 0.5 2.64645 
3.35355 -0.5 2.64645 3.5 -0.5 3 3.35355 0.5 3.35355 
3.35355 -0.5 3.35355 3 0.5 2.5 3 -0.5 2.5 
3 0.5 3.5 3 -0.5 3.5 2.64645 0.5 2.64645 
2.64645 -0.5 2.64645 2.64645 0.5 3.35355 2.64645 -0.5 3.35355 
2.5 0.5 3 2.5 -0.5 3 3.5 0.5 4.5 
3.35355 0.5 4.14645 3.35355 -0.5 4.14645 3.5 -0.5 4.5 
3.35355 0.5 4.85355 3.35355 -0.5 4.85355 3 0.5 4 
3 -0.5 4 3 0.5 5 3 -0.5 5 
2.64645 0.5 4.14645 2.64645 -0.5 4.14645 2.64645 0.5 4.85355 
2.64645 -0.5 4.85355 2.5 0.5 4.5 2.5 -0.5 4.5 
5 0.5 0 4.85355 0.5 -0.353553 4.85355 -0.5 -0.353553 
5 -0.5 0 4.85355 0.5 0.353553 4.85355 -0.5 0.353553 
4.5 0.5 -0.5 4.5 -0.5 -0.5 4.5 0.5 0.5 
4.5 -0.5 0.5 4.14645 0.5 -0.353553 4.14645 -0.5 -0.353553 
4.14645 0.5 0.353553 4.14645 -0.5 0.353553 4 0.5 -6.12323e-17 
4 -0.5 -6.12323e-17 5 0.5 1.5 4.85355 0.5 1.14645 
4.85355 -0.5 1.14645 5 -0.5 1.5 4.85355 0.5 1.85355 
4.85355 -0.5 1.85355 4.5 0.5 1 4.5 -0.5 1 
4.5 0.5 2 4.5 -0.5 2 4.14645 0.5 1.14645 
4.14645 -0.5 1.14645 4.14645 0.5 1.85355 4.14645 -0.5 1.85355 
4 0.5 1.5 4 -0.5 1.5 5 0.5 3 
4.85355 0.5 2.64645 4.85355 -0.5 2.64645 5 -0.5 3 
4.85355 0.5 3.35355 4.85355 -0.5 3.35355 4.5 0.5 2.5 
4.5 -0.5 2.5 4.5 0.5 3.5 4.5 -0.5 3.5 
4.14645 0.5 2.64645 4.14645 -0.5 2.64645 4.14645 0.5 3.35355 
4.14645 -0.5 3.35355 4 0.5 3 4 -0.5 3 
5 0.5 4.5 4.85355 0.5 4.14645 4.85355 -0.5 4.14645 
5 -0.5 4.5 4.85355 0.5 4.85355 4.85355 -0.5 4.85355 
4.5 0.5 4 4.5 -0.5 4 4.5 0.5 5 
4.5 -0.5 5 4.14645 0.5 4.14645 4.14645 -0.5 4.14645 
4.14645 0.5 4.85355 4.14645 -0.5 4.85355 4 0.5 4.5 
4 -0.5 4.5 
POLYGONS 203 1197
4 0 1 2 3 
4 5 4 14 13 
4 0 3 4 5 
4 1 13 14 2 
164 20 21 22 23 24 25 26 27 20 28 29 30 31 32 33 34 35 36 37 38 39 40 41 42 43 44 45 46 47 48 49 50 51 52 53 54 55 56 57 58 51 50 59 60 61 46 45 62 63 64 65 66 67 68 69 70 71 72 73 74 75 76 77 78 79 80 81 82 83 84 85 86 87 88 89 90 91 92 93 94 95 96 97 98 91 90 99 100 101 102 103 104 105 106 107 108 109 110 111 3 2 14 4 3 111 112 113 114 115 108 107 116 117 118 103 102 119 88 87 120 121 122 123 124 85 84 125 78 77 126 127 128 73 72 129 66 65 130 43 42 131 132 133 134 135 40 39 136 137 138 139 140 141 142 143 144 145 138 137 146 35 34 147 28 
4 225 224 202 207 
8 202 178 179 203 204 205 206 207 
4 205 248 249 206 
8 248 220 219 254 255 230 229 249 
4 254 262 263 255 
4 262 260 261 263 
8 260 245 244 242 243 236 235 261 
4 242 199 198 243 
4 203 215 214 204 
4 178 153 154 179 
4 153 6 8 154 
4 6 0 7 8 
4 7 157 158 8 
4 157 182 183 158 
4 182 210 211 183 
8 210 185 184 212 213 214 215 211 
4 212 250 251 213 
4 250 216 221 251 
8 216 187 186 217 218 219 220 221 
4 217 252 253 218 
3 0 9 7 
4 6 10 1 0 
3 10 15 1 
3 15 16 1 
3 16 17 1 
3 17 18 1 
4 18 19 13 1 
3 19 163 13 
3 163 164 13 
3 164 165 13 
3 165 148 13 
4 148 149 5 13 
3 149 150 5 
3 150 151 5 
3 151 152 5 
3 152 11 5 
4 11 12 0 5 
3 12 9 0 
4 11 159 160 12 
4 159 184 185 160 
4 152 161 162 11 
4 161 186 187 162 
4 151 176 177 152 
4 176 200 201 177 
4 148 172 173 149 
4 172 196 197 173 
4 196 240 241 197 
8 240 244 245 246 247 201 200 241 
4 246 253 252 247 
4 165 174 175 148 
4 174 198 199 175 
4 164 188 189 165 
4 188 222 223 189 
4 18 170 171 19 
4 170 194 195 171 
4 17 168 169 18 
4 168 192 193 169 
4 16 166 167 17 
4 166 190 191 167 
4 6 155 156 10 
4 155 180 181 156 
4 180 208 209 181 
8 208 224 225 226 227 191 190 209 
4 226 256 257 227 
4 256 228 233 257 
8 228 229 230 231 232 193 192 233 
4 231 258 259 232 
4 258 234 239 259 
8 234 235 236 237 238 195 194 239 
4 237 223 222 238 
4 264 265 266 267 
4 265 270 271 266 
4 270 274 275 271 
4 274 278 279 275 
4 278 276 277 279 
4 276 272 273 277 
4 272 268 269 273 
4 268 264 267 269 
4 280 281 282 283 
4 281 286 287 282 
4 286 290 291 287 
4 290 294 295 291 
4 294 292 293 295 
4 292 288 289 293 
4 288 284 285 289 
4 284 280 283 285 
4 296 297 298 299 
4 297 302 303 298 
4 302 306 307 303 
4 306 310 311 307 
4 310 308 309 311 
4 308 304 305 309 
4 304 300 301 305 
4 300 296 299 301 
4 312 313 314 315 
4 313 318 319 314 
4 318 322 323 319 
4 322 326 327 323 
4 326 324 325 327 
4 324 320 321 325 
4 320 316 317 321 
4 316 312 315 317 
4 328 329 330 331 
4 329 334 335 330 
4 334 338 339 335 
4 338 342 343 339 
4 342 340 341 343 
4 340 336 337 341 
4 336 332 333 337 
4 332 328 331 333 
4 344 345 346 347 
4 345 350 351 346 
4 350 354 355 351 
4 354 358 359 355 
4 358 356 357 359 
4 356 352 353 357 
4 352 348 349 353 
4 348 344 347 349 
4 360 361 362 363 
4 361 366 367 362 
4 366 370 371 367 
4 370 374 375 371 
4 374 372 373 375 
4 372 368 369 373 
4 368 364 365 369 
4 364 360 363 365 
4 376 377 378 379 
4 377 382 383 378 
4 382 386 387 383 
4 386 390 391 387 
4 390 388 389 391 
4 388 384 385 389 
4 384 380 381 385 
4 380 376 379 381 
4 392 393 394 395 
4 393 398 399 394 
4 398 402 403 399 
4 402 406 407 403 
4 406 404 405 407 
4 404 400 401 405 
4 400 396 397 401 
4 396 392 395 397 
4 408 409 410 411 
4 409 414 415 410 
4 414 418 419 415 
4 418 422 423 419 
4 422 420 421 423 
4 420 416 417 421 
4 416 412 413 417 
4 412 408 411 413 
4 424 425 426 427 
4 425 430 431 426 
4 430 434 435 431 
4 434 438 439 435 
4 438 436 437 439 
4 436 432 433 437 
4 432 428 429 433 
4 428 424 427 429 
4 440 441 442 443 
4 441 446 447 442 
4 446 450 451 447 
4 450 454 455 451 
4 454 452 453 455 
4 452 448 449 453 
4 448 444 445 449 
4 444 440 443 445 
4 456 457 458 459 
4 457 462 463 458 
4 462 466 467 463 
4 466 470 471 467 
4 470 468 469 471 
4 468 464 465 469 
4 464 460 461 465 
4 460 456 459 461 
4 472 473 474 475 
4 473 478 479 474 
4 478 482 483 479 
4 482 486 487 483 
4 486 484 485 487 
4 484 480 481 485 
4 480 476 477 481 
4 476 472 475 477 
4 488 489 490 491 
4 489 494 495 490 
4 494 498 499 495 
4 498 502 503 499 
4 502 500 501 503 
4 500 496 497 501 
4 496 492 493 497 
4 492 488 491 493 
4 504 505 506 507 
4 505 510 511 506 
4 510 514 515 511 
4 514 518 519 515 
4 518 516 517 519 
4 516 512 513 517 
4 512 508 509 513 
4 508 504 507 509 

CELL_DATA 203
FIELD FieldData 2
OrigCellIdsA 1 203 int
0 1 4 5 3 2 2 2 2 
2 2 2 2 2 2 2 2 2 
2 2 2 2 2 2 2 2 2 
2 2 2 2 2 2 2 2 2 
2 2 2 2 2 2 2 2 2 
2 2 2 2 2 2 2 2 2 
2 2 2 2 2 2 2 2 2 
2 2 2 2 2 2 2 2 2 
2 2 2 -1 -1 -1 -1 -1 -1 
-1 -1 -1 -1 -1 -1 -1 -1 -1 
-1 -1 -1 -1 -1 -1 -1 -1 -1 
-1 -1 -1 -1 -1 -1 -1 -1 -1 
-1 -1 -1 -1 -1 -1 -1 -1 -1 
-1 -1 -1 -1 -1 -1 -1 -1 -1 
-1 -1 -1 -1 -1 -1 -1 -1 -1 
-1 -1 -1 -1 -1 -1 -1 -1 -1 
-1 -1 -1 -1 -1 -1 -1 -1 -1 
-1 -1 -1 -1 -1 -1 -1 -1 -1 
-1 -1 -1 -1 -1 -1 -1 -1 -1 
-1 -1 -1 -1 -1 -1 -1 -1 -1 
-1 -1 -1 -1 -1 -1 -1 -1 -1 
-1 -1 -1 -1 -1 -1 -1 -1 -1 
-1 -1 -1 -1 -1 
OrigCellIdsB 1 203 int
-1 -1 -1 -1 -1 -1 -1 -1 -1 
-1 -1 -1 -1 -1 -1 -1 -1 -1 
-1 -1 -1 -1 -1 -1 -1 -1 -1 
-1 -1 -1 -1 -1 -1 -1 -1 -1 
-1 -1 -1 -1 -1 -1 -1 -1 -1 
-1 -1 -1 -1 -1 -1 -1 -1 -1 
-1 -1 -1 -1 -1 -1 -1 -1 -1 
-1 -1 -1 -1 -1 -1 -1 -1 -1 
-1 -1 -1 0 1 2 3 4 5 
6 7 10 11 12 13 14 15 16 
17 20 21 22 23 24 25 26 27 
30 31 32 33 34 35 36 37 40 
41 42 43 44 45 46 47 50 51 
52 53 54 55 56 57 60 61 62 
63 64 65 66 67 70 71 72 73 
74 75 76 77 80 81 82 83 84 
85 86 87 90 91 92 93 94 95 
96 97 100 101 102 103 104 105 106 
107 110 111 112 113 114 115 116 117 
120 121 122 123 124 125 126 127 130 
131 132 133 134 135 136 137 140 141 
142 143 144 145 146 147 150 151 152 
153 154 155 156 157 
POINT_DATA 520
SCALARS RegionId vtkIdType
LOOKUP_TABLE default
0 0 0 0 0 0 0 0 0 
0 0 0 0 0 0 0 0 0 
0 0 0 0 0 0 0 0 0 
0 0 0 0 0 0 0 0 0 
0 0 0 0 0 0 0 0 0 
0 0 0 0 0 0 0 0 0 
0 0 0 0 0 0 0 0 0 
0 0 0 0 0 0 0 0 0 
0 0 0 0 0 0 0 0 0 
0 0 0 0 0 0 0 0 0 
0 0 0 0 0 0 0 0 0 
0 0 0 0 0 0 0 0 0 
0 0 0 0 0 0 0 0 0 
0 0 0 0 0 0 0 0 0 
0 0 0 0 0 0 0 0 0 
0 0 0 0 0 0 0 0 0 
0 0 0 0 0 0 0 0 0 
0 0 0 0 0 0 0 0 0 
0 0 0 0 0 0 0 0 0 
0 0 0 0 0 0 0 0 0 
0 0 0 0 0 0 0 0 0 
0 0 0 0 0 0 0 0 0 
0 0 0 0 0 0 0 0 0 
0 0 0 0 0 0 0 0 0 
0 0 0 0 0 0 0 0 0 
0 0 0 0 0 0 0 0 0 
0 0 0 0 0 0 0 0 0 
0 0 0 0 0 0 0 0 0 
0 0 0 0 0 0 0 0 0 
0 0 0 1 1 1 1 1 1 
1 1 1 1 1 1 1 1 1 
1 2 2 2 2 2 2 2 2 
2 2 2 2 2 2 2 2 3 
3 3 3 3 3 3 3 3 3 
3 3 3 3 3 3 4 4 4 
4 4 4 4 4 4 4 4 4 
4 4 4 4 5 5 5 5 5 
5 5 5 5 5 5 5 5 5 
5 5 6 6 6 6 6 6 6 
6 6 6 6 6 6 6 6 6 
7 7 7 7 7 7 7 7 7 
7 7 7 7 7 7 7 8 8 
8 8 8 8 8 8 8 8 8 
8 8 8 8 8 9 9 9 9 
9 9 9 9 9 9 9 9 9 
9 9 9 10 10 10 10 10 10 
10 10 10 10 10 10 10 10 10 
10 11 11 11 11 11 11 11 11 
11 11 11 11 11 11 11 11 12 
12 12 12 12 12 12 12 12 12 
12 12 12 12 12 12 13 13 13 
13 13 13 13 13 13 13 13 13 
13 13 13 13 14 14 14 14 14 
14 14 14 14 14 14 14 14 14 
14 14 15 15 15 15 15 15 15 
15 15 15 15 15 15 15 15 15 
16 16 16 16 16 16 16 16 16 
16 16 16 16 16 16 16 
