# vtk DataFile Version 4.0
vtk output
ASCII
DATASET POLYDATA
POINTS 5408 double
-2.5 -0.5 -2.5 -2.5 -0.5 72.5 -2.5 0.5 72.5 
-2.5 0.5 -2.5 72.5 0.5 -2.5 72.5 -0.5 -2.5 
0.5 -0.5 25 0.25 -0.5 24.567 -0.25 -0.5 24.567 
-0.5 -0.5 25 -0.25 -0.5 25.433 0.25 -0.5 25.433 
4.5 -0.5 25 4.75 -0.5 25.433 5.25 -0.5 25.433 
5.5 -0.5 25 9.5 -0.5 25 9.75 -0.5 25.433 
10.25 -0.5 25.433 10.5 -0.5 25 14.5 -0.5 25 
14.75 -0.5 25.433 15.25 -0.5 25.433 15.5 -0.5 25 
19.5 -0.5 25 19.75 -0.5 25.433 20.25 -0.5 25.433 
20.5 -0.5 25 24.5 -0.5 25 24.75 -0.5 25.433 
25.25 -0.5 25.433 25.5 -0.5 25 29.5 -0.5 25 
29.75 -0.5 25.433 30.25 -0.5 25.433 30.5 -0.5 25 
34.5 -0.5 25 34.75 -0.5 25.433 35.25 -0.5 25.433 
35.5 -0.5 25 39.5 -0.5 25 39.75 -0.5 25.433 
40.25 -0.5 25.433 40.5 -0.5 25 44.5 -0.5 25 
44.75 -0.5 25.433 45.25 -0.5 25.433 45.5 -0.5 25 
49.5 -0.5 25 49.75 -0.5 25.433 50.25 -0.5 25.433 
50.5 -0.5 25 54.5 -0.5 25 54.75 -0.5 25.433 
55.25 -0.5 25.433 55.5 -0.5 25 59.5 -0.5 25 
59.75 -0.5 25.433 60.25 -0.5 25.433 60.5 -0.5 25 
64.5 -0.5 25 64.75 -0.5 25.433 65.25 -0.5 25.433 
65.5 -0.5 25 69.5 -0.5 25 69.75 -0.5 25.433 
69.75 -0.5 29.567 69.5 -0.5 30 65.5 -0.5 30 
65.25 -0.5 29.567 64.75 -0.5 29.567 64.5 -0.5 30 
60.5 -0.5 30 60.25 -0.5 29.567 59.75 -0.5 29.567 
59.5 -0.5 30 55.5 -0.5 30 55.25 -0.5 29.567 
54.75 -0.5 29.567 54.5 -0.5 30 50.5 -0.5 30 
50.25 -0.5 29.567 49.75 -0.5 29.567 49.5 -0.5 30 
45.5 -0.5 30 45.25 -0.5 29.567 44.75 -0.5 29.567 
44.5 -0.5 30 40.5 -0.5 30 40.25 -0.5 29.567 
39.75 -0.5 29.567 39.5 -0.5 30 35.5 -0.5 30 
35.25 -0.5 29.567 34.75 -0.5 29.567 34.5 -0.5 30 
30.5 -0.5 30 30.25 -0.5 29.567 29.75 -0.5 29.567 
29.5 -0.5 30 25.5 -0.5 30 25.25 -0.5 29.567 
24.75 -0.5 29.567 24.5 -0.5 30 20.5 -0.5 30 
20.25 -0.5 29.567 19.75 -0.5 29.567 19.5 -0.5 30 
15.5 -0.5 30 15.25 -0.5 29.567 14.75 -0.5 29.567 
14.5 -0.5 30 10.5 -0.5 30 10.25 -0.5 29.567 
9.75 -0.5 29.567 9.5 -0.5 30 5.5 -0.5 30 
5.25 -0.5 29.567 4.75 -0.5 29.567 4.5 -0.5 30 
0.5 -0.5 30 0.25 -0.5 29.567 -0.25 -0.5 29.567 
-0.5 -0.5 30 -0.25 -0.5 30.433 0.25 -0.5 30.433 
4.75 -0.5 30.433 5.25 -0.5 30.433 9.75 -0.5 30.433 
10.25 -0.5 30.433 14.75 -0.5 30.433 15.25 -0.5 30.433 
19.75 -0.5 30.433 20.25 -0.5 30.433 24.75 -0.5 30.433 
25.25 -0.5 30.433 29.75 -0.5 30.433 30.25 -0.5 30.433 
34.75 -0.5 30.433 35.25 -0.5 30.433 39.75 -0.5 30.433 
40.25 -0.5 30.433 44.75 -0.5 30.433 45.25 -0.5 30.433 
49.75 -0.5 30.433 50.25 -0.5 30.433 54.75 -0.5 30.433 
55.25 -0.5 30.433 59.75 -0.5 30.433 60.25 -0.5 30.433 
64.75 -0.5 30.433 65.25 -0.5 30.433 69.75 -0.5 30.433 
69.75 -0.5 34.567 69.5 -0.5 35 65.5 -0.5 35 
65.25 -0.5 34.567 64.75 -0.5 34.567 64.5 -0.5 35 
60.5 -0.5 35 60.25 -0.5 34.567 59.75 -0.5 34.567 
59.5 -0.5 35 55.5 -0.5 35 55.25 -0.5 34.567 
54.75 -0.5 34.567 54.5 -0.5 35 50.5 -0.5 35 
50.25 -0.5 34.567 49.75 -0.5 34.567 49.5 -0.5 35 
45.5 -0.5 35 45.25 -0.5 34.567 44.75 -0.5 34.567 
44.5 -0.5 35 40.5 -0.5 35 40.25 -0.5 34.567 
39.75 -0.5 34.567 39.5 -0.5 35 35.5 -0.5 35 
35.25 -0.5 34.567 34.75 -0.5 34.567 34.5 -0.5 35 
30.5 -0.5 35 30.25 -0.5 34.567 29.75 -0.5 34.567 
29.5 -0.5 35 25.5 -0.5 35 25.25 -0.5 34.567 
24.75 -0.5 34.567 24.5 -0.5 35 20.5 -0.5 35 
20.25 -0.5 34.567 19.75 -0.5 34.567 19.5 -0.5 35 
15.5 -0.5 35 15.25 -0.5 34.567 14.75 -0.5 34.567 
14.5 -0.5 35 10.5 -0.5 35 10.25 -0.5 34.567 
9.75 -0.5 34.567 9.5 -0.5 35 5.5 -0.5 35 
5.25 -0.5 34.567 4.75 -0.5 34.567 4.5 -0.5 35 
0.5 -0.5 35 0.25 -0.5 34.567 -0.25 -0.5 34.567 
-0.5 -0.5 35 -0.25 -0.5 35.433 0.25 -0.5 35.433 
4.75 -0.5 35.433 5.25 -0.5 35.433 9.75 -0.5 35.433 
10.25 -0.5 35.433 14.75 -0.5 35.433 15.25 -0.5 35.433 
19.75 -0.5 35.433 20.25 -0.5 35.433 24.75 -0.5 35.433 
25.25 -0.5 35.433 29.75 -0.5 35.433 30.25 -0.5 35.433 
34.75 -0.5 35.433 35.25 -0.5 35.433 39.75 -0.5 35.433 
40.25 -0.5 35.433 44.75 -0.5 35.433 45.25 -0.5 35.433 
49.75 -0.5 35.433 50.25 -0.5 35.433 54.75 -0.5 35.433 
55.25 -0.5 35.433 59.75 -0.5 35.433 60.25 -0.5 35.433 
64.75 -0.5 35.433 65.25 -0.5 35.433 69.75 -0.5 35.433 
69.75 -0.5 39.567 69.5 -0.5 40 65.5 -0.5 40 
65.25 -0.5 39.567 64.75 -0.5 39.567 64.5 -0.5 40 
60.5 -0.5 40 60.25 -0.5 39.567 59.75 -0.5 39.567 
59.5 -0.5 40 55.5 -0.5 40 55.25 -0.5 39.567 
54.75 -0.5 39.567 54.5 -0.5 40 50.5 -0.5 40 
50.25 -0.5 39.567 49.75 -0.5 39.567 49.5 -0.5 40 
45.5 -0.5 40 45.25 -0.5 39.567 44.75 -0.5 39.567 
44.5 -0.5 40 40.5 -0.5 40 40.25 -0.5 39.567 
39.75 -0.5 39.567 39.5 -0.5 40 35.5 -0.5 40 
35.25 -0.5 39.567 34.75 -0.5 39.567 34.5 -0.5 40 
30.5 -0.5 40 30.25 -0.5 39.567 29.75 -0.5 39.567 
29.5 -0.5 40 25.5 -0.5 40 25.25 -0.5 39.567 
24.75 -0.5 39.567 24.5 -0.5 40 20.5 -0.5 40 
20.25 -0.5 39.567 19.75 -0.5 39.567 19.5 -0.5 40 
15.5 -0.5 40 15.25 -0.5 39.567 14.75 -0.5 39.567 
14.5 -0.5 40 10.5 -0.5 40 10.25 -0.5 39.567 
9.75 -0.5 39.567 9.5 -0.5 40 5.5 -0.5 40 
5.25 -0.5 39.567 4.75 -0.5 39.567 4.5 -0.5 40 
0.5 -0.5 40 0.25 -0.5 39.567 -0.25 -0.5 39.567 
-0.5 -0.5 40 -0.25 -0.5 40.433 0.25 -0.5 40.433 
4.75 -0.5 40.433 5.25 -0.5 40.433 9.75 -0.5 40.433 
10.25 -0.5 40.433 14.75 -0.5 40.433 15.25 -0.5 40.433 
19.75 -0.5 40.433 20.25 -0.5 40.433 24.75 -0.5 40.433 
25.25 -0.5 40.433 29.75 -0.5 40.433 30.25 -0.5 40.433 
34.75 -0.5 40.433 35.25 -0.5 40.433 39.75 -0.5 40.433 
40.25 -0.5 40.433 44.75 -0.5 40.433 45.25 -0.5 40.433 
49.75 -0.5 40.433 50.25 -0.5 40.433 54.75 -0.5 40.433 
55.25 -0.5 40.433 59.75 -0.5 40.433 60.25 -0.5 40.433 
64.75 -0.5 40.433 65.25 -0.5 40.433 69.75 -0.5 40.433 
69.75 -0.5 44.567 69.5 -0.5 45 65.5 -0.5 45 
65.25 -0.5 44.567 64.75 -0.5 44.567 64.5 -0.5 45 
60.5 -0.5 45 60.25 -0.5 44.567 59.75 -0.5 44.567 
59.5 -0.5 45 55.5 -0.5 45 55.25 -0.5 44.567 
54.75 -0.5 44.567 54.5 -0.5 45 50.5 -0.5 45 
50.25 -0.5 44.567 49.75 -0.5 44.567 49.5 -0.5 45 
45.5 -0.5 45 45.25 -0.5 44.567 44.75 -0.5 44.567 
44.5 -0.5 45 40.5 -0.5 45 40.25 -0.5 44.567 
39.75 -0.5 44.567 39.5 -0.5 45 35.5 -0.5 45 
35.25 -0.5 44.567 34.75 -0.5 44.567 34.5 -0.5 45 
30.5 -0.5 45 30.25 -0.5 44.567 29.75 -0.5 44.567 
29.5 -0.5 45 25.5 -0.5 45 25.25 -0.5 44.567 
24.75 -0.5 44.567 24.5 -0.5 45 20.5 -0.5 45 
20.25 -0.5 44.567 19.75 -0.5 44.567 19.5 -0.5 45 
15.5 -0.5 45 15.25 -0.5 44.567 14.75 -0.5 44.567 
14.5 -0.5 45 10.5 -0.5 45 10.25 -0.5 44.567 
9.75 -0.5 44.567 9.5 -0.5 45 5.5 -0.5 45 
5.25 -0.5 44.567 4.75 -0.5 44.567 4.5 -0.5 45 
0.5 -0.5 45 0.25 -0.5 44.567 -0.25 -0.5 44.567 
-0.5 -0.5 45 -0.25 -0.5 45.433 0.25 -0.5 45.433 
4.75 -0.5 45.433 5.25 -0.5 45.433 9.75 -0.5 45.433 
10.25 -0.5 45.433 14.75 -0.5 45.433 15.25 -0.5 45.433 
19.75 -0.5 45.433 20.25 -0.5 45.433 24.75 -0.5 45.433 
25.25 -0.5 45.433 29.75 -0.5 45.433 30.25 -0.5 45.433 
34.75 -0.5 45.433 35.25 -0.5 45.433 39.75 -0.5 45.433 
40.25 -0.5 45.433 44.75 -0.5 45.433 45.25 -0.5 45.433 
49.75 -0.5 45.433 50.25 -0.5 45.433 54.75 -0.5 45.433 
55.25 -0.5 45.433 59.75 -0.5 45.433 60.25 -0.5 45.433 
64.75 -0.5 45.433 65.25 -0.5 45.433 69.75 -0.5 45.433 
69.75 -0.5 49.567 69.5 -0.5 50 65.5 -0.5 50 
65.25 -0.5 49.567 64.75 -0.5 49.567 64.5 -0.5 50 
60.5 -0.5 50 60.25 -0.5 49.567 59.75 -0.5 49.567 
59.5 -0.5 50 55.5 -0.5 50 55.25 -0.5 49.567 
54.75 -0.5 49.567 54.5 -0.5 50 50.5 -0.5 50 
50.25 -0.5 49.567 49.75 -0.5 49.567 49.5 -0.5 50 
45.5 -0.5 50 45.25 -0.5 49.567 44.75 -0.5 49.567 
44.5 -0.5 50 40.5 -0.5 50 40.25 -0.5 49.567 
39.75 -0.5 49.567 39.5 -0.5 50 35.5 -0.5 50 
35.25 -0.5 49.567 34.75 -0.5 49.567 34.5 -0.5 50 
30.5 -0.5 50 30.25 -0.5 49.567 29.75 -0.5 49.567 
29.5 -0.5 50 25.5 -0.5 50 25.25 -0.5 49.567 
24.75 -0.5 49.567 24.5 -0.5 50 20.5 -0.5 50 
20.25 -0.5 49.567 19.75 -0.5 49.567 19.5 -0.5 50 
15.5 -0.5 50 15.25 -0.5 49.567 14.75 -0.5 49.567 
14.5 -0.5 50 10.5 -0.5 50 10.25 -0.5 49.567 
9.75 -0.5 49.567 9.5 -0.5 50 5.5 -0.5 50 
5.25 -0.5 49.567 4.75 -0.5 49.567 4.5 -0.5 50 
0.5 -0.5 50 0.25 -0.5 49.567 -0.25 -0.5 49.567 
-0.5 -0.5 50 -0.25 -0.5 50.433 0.25 -0.5 50.433 
4.75 -0.5 50.433 5.25 -0.5 50.433 9.75 -0.5 50.433 
10.25 -0.5 50.433 14.75 -0.5 50.433 15.25 -0.5 50.433 
19.75 -0.5 50.433 20.25 -0.5 50.433 24.75 -0.5 50.433 
25.25 -0.5 50.433 29.75 -0.5 50.433 30.25 -0.5 50.433 
34.75 -0.5 50.433 35.25 -0.5 50.433 39.75 -0.5 50.433 
40.25 -0.5 50.433 44.75 -0.5 50.433 45.25 -0.5 50.433 
49.75 -0.5 50.433 50.25 -0.5 50.433 54.75 -0.5 50.433 
55.25 -0.5 50.433 59.75 -0.5 50.433 60.25 -0.5 50.433 
64.75 -0.5 50.433 65.25 -0.5 50.433 69.75 -0.5 50.433 
69.75 -0.5 54.567 69.5 -0.5 55 65.5 -0.5 55 
65.25 -0.5 54.567 64.75 -0.5 54.567 64.5 -0.5 55 
60.5 -0.5 55 60.25 -0.5 54.567 59.75 -0.5 54.567 
59.5 -0.5 55 55.5 -0.5 55 55.25 -0.5 54.567 
54.75 -0.5 54.567 54.5 -0.5 55 50.5 -0.5 55 
50.25 -0.5 54.567 49.75 -0.5 54.567 49.5 -0.5 55 
45.5 -0.5 55 45.25 -0.5 54.567 44.75 -0.5 54.567 
44.5 -0.5 55 40.5 -0.5 55 40.25 -0.5 54.567 
39.75 -0.5 54.567 39.5 -0.5 55 35.5 -0.5 55 
35.25 -0.5 54.567 34.75 -0.5 54.567 34.5 -0.5 55 
30.5 -0.5 55 30.25 -0.5 54.567 29.75 -0.5 54.567 
29.5 -0.5 55 25.5 -0.5 55 25.25 -0.5 54.567 
24.75 -0.5 54.567 24.5 -0.5 55 20.5 -0.5 55 
20.25 -0.5 54.567 19.75 -0.5 54.567 19.5 -0.5 55 
15.5 -0.5 55 15.25 -0.5 54.567 14.75 -0.5 54.567 
14.5 -0.5 55 10.5 -0.5 55 10.25 -0.5 54.567 
9.75 -0.5 54.567 9.5 -0.5 55 5.5 -0.5 55 
5.25 -0.5 54.567 4.75 -0.5 54.567 4.5 -0.5 55 
0.5 -0.5 55 0.25 -0.5 54.567 -0.25 -0.5 54.567 
-0.5 -0.5 55 -0.25 -0.5 55.433 0.25 -0.5 55.433 
4.75 -0.5 55.433 5.25 -0.5 55.433 9.75 -0.5 55.433 
10.25 -0.5 55.433 14.75 -0.5 55.433 15.25 -0.5 55.433 
19.75 -0.5 55.433 20.25 -0.5 55.433 24.75 -0.5 55.433 
25.25 -0.5 55.433 29.75 -0.5 55.433 30.25 -0.5 55.433 
34.75 -0.5 55.433 35.25 -0.5 55.433 39.75 -0.5 55.433 
40.25 -0.5 55.433 44.75 -0.5 55.433 45.25 -0.5 55.433 
49.75 -0.5 55.433 50.25 -0.5 55.433 54.75 -0.5 55.433 
55.25 -0.5 55.433 59.75 -0.5 55.433 60.25 -0.5 55.433 
64.75 -0.5 55.433 65.25 -0.5 55.433 69.75 -0.5 55.433 
69.75 -0.5 59.567 69.5 -0.5 60 65.5 -0.5 60 
65.25 -0.5 59.567 64.75 -0.5 59.567 64.5 -0.5 60 
60.5 -0.5 60 60.25 -0.5 59.567 59.75 -0.5 59.567 
59.5 -0.5 60 55.5 -0.5 60 55.25 -0.5 59.567 
54.75 -0.5 59.567 54.5 -0.5 60 50.5 -0.5 60 
[...]
CELL_DATA 1356
FIELD FieldData 2
OrigCellIdsA 1 1356 int
0 1 4 5 2 3 -1 -1 -1 
-1 -1 -1 -1 -1 -1 -1 -1 -1 
-1 -1 -1 -1 -1 -1 -1 -1 -1 
-1 -1 -1 -1 -1 -1 -1 -1 -1 
-1 -1 -1 -1 -1 -1 -1 -1 -1 
-1 -1 -1 -1 -1 -1 -1 -1 -1 
-1 -1 -1 -1 -1 -1 -1 -1 -1 
-1 -1 -1 -1 -1 -1 -1 -1 -1 
-1 -1 -1 -1 -1 -1 -1 -1 -1 
-1 -1 -1 -1 -1 -1 -1 -1 -1 
-1 -1 -1 -1 -1 -1 -1 -1 -1 
-1 -1 -1 -1 -1 -1 -1 -1 -1 
-1 -1 -1 -1 -1 -1 -1 -1 -1 
-1 -1 -1 -1 -1 -1 -1 -1 -1 
-1 -1 -1 -1 -1 -1 -1 -1 -1 
-1 -1 -1 -1 -1 -1 -1 -1 -1 
-1 -1 -1 -1 -1 -1 -1 -1 -1 
-1 -1 -1 -1 -1 -1 -1 -1 -1 
-1 -1 -1 -1 -1 -1 -1 -1 -1 
-1 -1 -1 -1 -1 -1 -1 -1 -1 
-1 -1 -1 -1 -1 -1 -1 -1 -1 
-1 -1 -1 -1 -1 -1 -1 -1 -1 
-1 -1 -1 -1 -1 -1 -1 -1 -1 
-1 -1 -1 -1 -1 -1 -1 -1 -1 
-1 -1 -1 -1 -1 -1 -1 -1 -1 
-1 -1 -1 -1 -1 -1 -1 -1 -1 
-1 -1 -1 -1 -1 -1 -1 -1 -1 
-1 -1 -1 -1 -1 -1 -1 -1 -1 
-1 -1 -1 -1 -1 -1 -1 -1 -1 
-1 -1 -1 -1 -1 -1 -1 -1 -1 
-1 -1 -1 -1 -1 -1 -1 -1 -1 
-1 -1 -1 -1 -1 -1 -1 -1 -1 
-1 -1 -1 -1 -1 -1 -1 -1 -1 
-1 -1 -1 -1 -1 -1 -1 -1 -1 
-1 -1 -1 -1 -1 -1 -1 -1 -1 
-1 -1 -1 -1 -1 -1 -1 -1 -1 
-1 -1 -1 -1 -1 -1 -1 -1 -1 
-1 -1 -1 -1 -1 -1 -1 -1 -1 
-1 -1 -1 -1 -1 -1 -1 -1 -1 
-1 -1 -1 -1 -1 -1 -1 -1 -1 
-1 -1 -1 -1 -1 -1 -1 -1 -1 
-1 -1 -1 -1 -1 -1 -1 -1 -1 
-1 -1 -1 -1 -1 -1 -1 -1 -1 
-1 -1 -1 -1 -1 -1 -1 -1 -1 
-1 -1 -1 -1 -1 -1 -1 -1 -1 
-1 -1 -1 -1 -1 -1 -1 -1 -1 
-1 -1 -1 -1 -1 -1 -1 -1 -1 
-1 -1 -1 -1 -1 -1 -1 -1 -1 
-1 -1 -1 -1 -1 -1 -1 -1 -1 
-1 -1 -1 -1 -1 -1 -1 -1 -1 
-1 -1 -1 -1 -1 -1 -1 -1 -1 
-1 -1 -1 -1 -1 -1 -1 -1 -1 
-1 -1 -1 -1 -1 -1 -1 -1 -1 
-1 -1 -1 -1 -1 -1 -1 -1 -1 
-1 -1 -1 -1 -1 -1 -1 -1 -1 
-1 -1 -1 -1 -1 -1 -1 -1 -1 
-1 -1 -1 -1 -1 -1 -1 -1 -1 
-1 -1 -1 -1 -1 -1 -1 -1 -1 
-1 -1 -1 -1 -1 -1 -1 -1 -1 
-1 -1 -1 -1 -1 -1 -1 -1 -1 
-1 -1 -1 -1 -1 -1 -1 -1 -1 
-1 -1 -1 -1 -1 -1 -1 -1 -1 
-1 -1 -1 -1 -1 -1 -1 -1 -1 
-1 -1 -1 -1 -1 -1 -1 -1 -1 
-1 -1 -1 -1 -1 -1 -1 -1 -1 
-1 -1 -1 -1 -1 -1 -1 -1 -1 
-1 -1 -1 -1 -1 -1 -1 -1 -1 
-1 -1 -1 -1 -1 -1 -1 -1 -1 
-1 -1 -1 -1 -1 -1 -1 -1 -1 
-1 -1 -1 -1 -1 -1 -1 -1 -1 
-1 -1 -1 -1 -1 -1 -1 -1 -1 
-1 -1 -1 -1 -1 -1 -1 -1 -1 
-1 -1 -1 -1 -1 -1 -1 -1 -1 
-1 -1 -1 -1 -1 -1 -1 -1 -1 
-1 -1 -1 -1 -1 -1 -1 -1 -1 
-1 -1 -1 -1 -1 -1 -1 -1 -1 
-1 -1 -1 -1 -1 -1 -1 -1 -1 
-1 -1 -1 -1 -1 -1 -1 -1 -1 
-1 -1 -1 -1 -1 -1 -1 -1 -1 
-1 -1 -1 -1 -1 -1 -1 -1 -1 
-1 -1 -1 -1 -1 -1 -1 -1 -1 
-1 -1 -1 -1 -1 -1 -1 -1 -1 
-1 -1 -1 -1 -1 -1 -1 -1 -1 
-1 -1 -1 -1 -1 -1 -1 -1 -1 
-1 -1 -1 -1 -1 -1 -1 -1 -1 
-1 -1 -1 -1 -1 -1 -1 -1 -1 
-1 -1 -1 -1 -1 -1 -1 -1 -1 
-1 -1 -1 -1 -1 -1 -1 -1 -1 
-1 -1 -1 -1 -1 -1 -1 -1 -1 
-1 -1 -1 -1 -1 -1 -1 -1 -1 
-1 -1 -1 -1 -1 -1 -1 -1 -1 
-1 -1 -1 -1 -1 -1 -1 -1 -1 
-1 -1 -1 -1 -1 -1 -1 -1 -1 
-1 -1 -1 -1 -1 -1 -1 -1 -1 
-1 -1 -1 -1 -1 -1 -1 -1 -1 
-1 -1 -1 -1 -1 -1 -1 -1 -1 
-1 -1 -1 -1 -1 -1 -1 -1 -1 
-1 -1 -1 -1 -1 -1 -1 -1 -1 
-1 -1 -1 -1 -1 -1 -1 -1 -1 
-1 -1 -1 -1 -1 -1 -1 -1 -1 
-1 -1 -1 -1 -1 -1 -1 -1 -1 
-1 -1 -1 -1 -1 -1 -1 -1 -1 
-1 -1 -1 -1 -1 -1 -1 -1 -1 
-1 -1 -1 -1 -1 -1 -1 -1 -1 
-1 -1 -1 -1 -1 -1 -1 -1 -1 
-1 -1 -1 -1 -1 -1 -1 -1 -1 
-1 -1 -1 -1 -1 -1 -1 -1 -1 
-1 -1 -1 -1 -1 -1 -1 -1 -1 
-1 -1 -1 -1 -1 -1 -1 -1 -1 
-1 -1 -1 -1 -1 -1 -1 -1 -1 
-1 -1 -1 -1 -1 -1 -1 -1 -1 
-1 -1 -1 -1 -1 -1 -1 -1 -1 
-1 -1 -1 -1 -1 -1 -1 -1 -1 
-1 -1 -1 -1 -1 -1 -1 -1 -1 
-1 -1 -1 -1 -1 -1 -1 -1 -1 
-1 -1 -1 -1 -1 -1 -1 -1 -1 
-1 -1 -1 -1 -1 -1 -1 -1 -1 
-1 -1 -1 -1 -1 -1 -1 -1 -1 
-1 -1 -1 -1 -1 -1 -1 -1 -1 
-1 -1 -1 -1 -1 -1 -1 -1 -1 
-1 -1 -1 -1 -1 -1 -1 -1 -1 
-1 -1 -1 -1 -1 -1 -1 -1 -1 
-1 -1 -1 -1 -1 -1 -1 -1 -1 
-1 -1 -1 -1 -1 -1 -1 -1 -1 
-1 -1 -1 -1 -1 -1 -1 -1 -1 
-1 -1 -1 -1 -1 -1 -1 -1 -1 
-1 -1 -1 -1 -1 -1 -1 -1 -1 
-1 -1 -1 -1 -1 -1 -1 -1 -1 
-1 -1 -1 -1 -1 -1 -1 -1 -1 
-1 -1 -1 -1 -1 -1 -1 -1 -1 
-1 -1 -1 -1 -1 -1 -1 -1 -1 
-1 -1 -1 -1 -1 -1 -1 -1 -1 
-1 -1 -1 -1 -1 -1 -1 -1 -1 
-1 -1 -1 -1 -1 -1 -1 -1 -1 
-1 -1 -1 -1 -1 -1 -1 -1 -1 
-1 -1 -1 -1 -1 -1 -1 -1 -1 
-1 -1 -1 -1 -1 -1 -1 -1 -1 
-1 -1 -1 -1 -1 -1 -1 -1 -1 
-1 -1 -1 -1 -1 -1 -1 -1 -1 
-1 -1 -1 -1 -1 -1 -1 -1 -1 
-1 -1 -1 -1 -1 -1 -1 -1 -1 
-1 -1 -1 -1 -1 -1 -1 -1 -1 
-1 -1 -1 -1 -1 -1 -1 -1 -1 
-1 -1 -1 -1 -1 -1 -1 -1 -1 
-1 -1 -1 -1 -1 -1 -1 -1 -1 
-1 -1 -1 -1 -1 -1 -1 -1 -1 
-1 -1 -1 -1 -1 -1 -1 -1 -1 
-1 -1 -1 -1 -1 -1 -1 -1 -1 
-1 -1 -1 -1 -1 -1 -1 -1 -1 
-1 -1 -1 -1 -1 -1 -1 -1 -1 
-1 -1 -1 -1 -1 -1 
OrigCellIdsB 1 1356 int
-1 -1 -1 -1 -1 -1 0 1 2 
3 4 5 8 9 10 11 12 13 
16 17 18 19 20 21 24 25 26 
27 28 29 32 33 34 35 36 37 
40 41 42 43 44 45 48 49 50 
51 52 53 56 57 58 59 60 61 
64 65 66 67 68 69 72 73 74 
75 76 77 80 81 82 83 84 85 
88 89 90 91 92 93 96 97 98 
99 100 101 104 105 106 107 108 109 
112 113 114 115 116 117 120 121 122 
123 124 125 128 129 130 131 132 133 
136 137 138 139 140 141 144 145 146 
147 148 149 152 153 154 155 156 157 
160 161 162 163 164 165 168 169 170 
171 172 173 176 177 178 179 180 181 
184 185 186 187 188 189 192 193 194 
195 196 197 200 201 202 203 204 205 
208 209 210 211 212 213 216 217 218 
219 220 221 224 225 226 227 228 229 
232 233 234 235 236 237 240 241 242 
243 244 245 248 249 250 251 252 253 
256 257 258 259 260 261 264 265 266 
267 268 269 272 273 274 275 276 277 
280 281 282 283 284 285 288 289 290 
291 292 293 296 297 298 299 300 301 
304 305 306 307 308 309 312 313 314 
315 316 317 320 321 322 323 324 325 
328 329 330 331 332 333 336 337 338 
339 340 341 344 345 346 347 348 349 
352 353 354 355 356 357 360 361 362 
363 364 365 368 369 370 371 372 373 
376 377 378 379 380 381 384 385 386 
387 388 389 392 393 394 395 396 397 
400 401 402 403 404 405 408 409 410 
411 412 413 416 417 418 419 420 421 
424 425 426 427 428 429 432 433 434 
435 436 437 440 441 442 443 444 445 
448 449 450 451 452 453 456 457 458 
459 460 461 464 465 466 467 468 469 
472 473 474 475 476 477 480 481 482 
483 484 485 488 489 490 491 492 493 
496 497 498 499 500 501 504 505 506 
507 508 509 512 513 514 515 516 517 
520 521 522 523 524 525 528 529 530 
531 532 533 536 537 538 539 540 541 
544 545 546 547 548 549 552 553 554 
555 556 557 560 561 562 563 564 565 
568 569 570 571 572 573 576 577 578 
579 580 581 584 585 586 587 588 589 
592 593 594 595 596 597 600 601 602 
603 604 605 608 609 610 611 612 613 
616 617 618 619 620 621 624 625 626 
627 628 629 632 633 634 635 636 637 
640 641 642 643 644 645 648 649 650 
651 652 653 656 657 658 659 660 661 
664 665 666 667 668 669 672 673 674 
675 676 677 680 681 682 683 684 685 
688 689 690 691 692 693 696 697 698 
699 700 701 704 705 706 707 708 709 
712 713 714 715 716 717 720 721 722 
723 724 725 728 729 730 731 732 733 
736 737 738 739 740 741 744 745 746 
747 748 749 752 753 754 755 756 757 
760 761 762 763 764 765 768 769 770 
771 772 773 776 777 778 779 780 781 
784 785 786 787 788 789 792 793 794 
795 796 797 800 801 802 803 804 805 
808 809 810 811 812 813 816 817 818 
819 820 821 824 825 826 827 828 829 
832 833 834 835 836 837 840 841 842 
843 844 845 848 849 850 851 852 853 
856 857 858 859 860 861 864 865 866 
867 868 869 872 873 874 875 876 877 
880 881 882 883 884 885 888 889 890 
891 892 893 896 897 898 899 900 901 
904 905 906 907 908 909 912 913 914 
915 916 917 920 921 922 923 924 925 
928 929 930 931 932 933 936 937 938 
939 940 941 944 945 946 947 948 949 
952 953 954 955 956 957 960 961 962 
963 964 965 968 969 970 971 972 973 
976 977 978 979 980 981 984 985 986 
987 988 989 992 993 994 995 996 997 
1000 1001 1002 1003 1004 1005 1008 1009 1010 
1011 1012 1013 1016 1017 1018 1019 1020 1021 
1024 1025 1026 1027 1028 1029 1032 1033 1034 
1035 1036 1037 1040 1041 1042 1043 1044 1045 
1048 1049 1050 1051 1052 1053 1056 1057 1058 
1059 1060 1061 1064 1065 1066 1067 1068 1069 
1072 1073 1074 1075 1076 1077 1080 1081 1082 
1083 1084 1085 1088 1089 1090 1091 1092 1093 
1096 1097 1098 1099 1100 1101 1104 1105 1106 
1107 1108 1109 1112 1113 1114 1115 1116 1117 
1120 1121 1122 1123 1124 1125 1128 1129 1130 
1131 1132 1133 1136 1137 1138 1139 1140 1141 
1144 1145 1146 1147 1148 1149 1152 1153 1154 
1155 1156 1157 1160 1161 1162 1163 1164 1165 
1168 1169 1170 1171 1172 1173 1176 1177 1178 
1179 1180 1181 1184 1185 1186 1187 1188 1189 
1192 1193 1194 1195 1196 1197 1200 1201 1202 
1203 1204 1205 1208 1209 1210 1211 1212 1213 
1216 1217 1218 1219 1220 1221 1224 1225 1226 
1227 1228 1229 1232 1233 1234 1235 1236 1237 
1240 1241 1242 1243 1244 1245 1248 1249 1250 
1251 1252 1253 1256 1257 1258 1259 1260 1261 
1264 1265 1266 1267 1268 1269 1272 1273 1274 
1275 1276 1277 1280 1281 1282 1283 1284 1285 
1288 1289 1290 1291 1292 1293 1296 1297 1298 
1299 1300 1301 1304 1305 1306 1307 1308 1309 
1312 1313 1314 1315 1316 1317 1320 1321 1322 
1323 1324 1325 1328 1329 1330 1331 1332 1333 
1336 1337 1338 1339 1340 1341 1344 1345 1346 
1347 1348 1349 1352 1353 1354 1355 1356 1357 
1360 1361 1362 1363 1364 1365 1368 1369 1370 
1371 1372 1373 1376 1377 1378 1379 1380 1381 
1384 1385 1386 1387 1388 1389 1392 1393 1394 
1395 1396 1397 1400 1401 1402 1403 1404 1405 
1408 1409 1410 1411 1412 1413 1416 1417 1418 
1419 1420 1421 1424 1425 1426 1427 1428 1429 
1432 1433 1434 1435 1436 1437 1440 1441 1442 
1443 1444 1445 1448 1449 1450 1451 1452 1453 
1456 1457 1458 1459 1460 1461 1464 1465 1466 
1467 1468 1469 1472 1473 1474 1475 1476 1477 
1480 1481 1482 1483 1484 1485 1488 1489 1490 
1491 1492 1493 1496 1497 1498 1499 1500 1501 
1504 1505 1506 1507 1508 1509 1512 1513 1514 
1515 1516 1517 1520 1521 1522 1523 1524 1525 
1528 1529 1530 1531 1532 1533 1536 1537 1538 
1539 1540 1541 1544 1545 1546 1547 1548 1549 
1552 1553 1554 1555 1556 1557 1560 1561 1562 
1563 1564 1565 1568 1569 1570 1571 1572 1573 
1576 1577 1578 1579 1580 1581 1584 1585 1586 
1587 1588 1589 1592 1593 1594 1595 1596 1597 
1600 1601 1602 1603 1604 1605 1608 1609 1610 
1611 1612 1613 1616 1617 1618 1619 1620 1621 
1624 1625 1626 1627 1628 1629 1632 1633 1634 
1635 1636 1637 1640 1641 1642 1643 1644 1645 
1648 1649 1650 1651 1652 1653 1656 1657 1658 
1659 1660 1661 1664 1665 1666 1667 1668 1669 
1672 1673 1674 1675 1676 1677 1680 1681 1682 
1683 1684 1685 1688 1689 1690 1691 1692 1693 
1696 1697 1698 1699 1700 1701 1704 1705 1706 
1707 1708 1709 1712 1713 1714 1715 1716 1717 
1720 1721 1722 1723 1724 1725 1728 1729 1730 
1731 1732 1733 1736 1737 1738 1739 1740 1741 
1744 1745 1746 1747 1748 1749 1752 1753 1754 
1755 1756 1757 1760 1761 1762 1763 1764 1765 
1768 1769 1770 1771 1772 1773 1776 1777 1778 
1779 1780 1781 1784 1785 1786 1787 1788 1789 
1792 1793 1794 1795 1796 1797 
POINT_DATA 5408
SCALARS RegionId vtkIdType
LOOKUP_TABLE default
0 0 0 0 0 0 0 0 0 
0 0 0 0 0 0 0 0 0 
0 0 0 0 0 0 0 0 0 
0 0 0 0 0 0 0 0 0 
0 0 0 0 0 0 0 0 0 
0 0 0 0 0 0 0 0 0 
0 0 0 0 0 0 0 0 0 
0 0 0 0 0 0 0 0 0 
0 0 0 0 0 0 0 0 0 
0 0 0 0 0 0 0 0 0 
0 0 0 0 0 0 0 0 0 
0 0 0 0 0 0 0 0 0 
0 0 0 0 0 0 0 0 0 
0 0 0 0 0 0 0 0 0 
0 0 0 0 0 0 0 0 0 
0 0 0 0 0 0 0 0 0 
0 0 0 0 0 0 0 0 0 
0 0 0 0 0 0 0 0 0 
0 0 0 0 0 0 0 0 0 
0 0 0 0 0 0 0 0 0 
0 0 0 0 0 0 0 0 0 
0 0 0 0 0 0 0 0 0 
0 0 0 0 0 0 0 0 0 
0 0 0 0 0 0 0 0 0 
0 0 0 0 0 0 0 0 0 
0 0 0 0 0 0 0 0 0 
0 0 0 0 0 0 0 0 0 
0 0 0 0 0 0 0 0 0 
0 0 0 0 0 0 0 0 0 
0 0 0 0 0 0 0 0 0 
0 0 0 0 0 0 0 0 0 
0 0 0 0 0 0 0 0 0 
0 0 0 0 0 0 0 0 0 
0 0 0 0 0 0 0 0 0 
0 0 0 0 0 0 0 0 0 
0 0 0 0 0 0 0 0 0 
0 0 0 0 0 0 0 0 0 
0 0 0 0 0 0 0 0 0 
0 0 0 0 0 0 0 0 0 
0 0 0 0 0 0 0 0 0 
0 0 0 0 0 0 0 0 0 
0 0 0 0 0 0 0 0 0 
0 0 0 0 0 0 0 0 0 
0 0 0 0 0 0 0 0 0 
0 0 0 0 0 0 0 0 0 
0 0 0 0 0 0 0 0 0 
0 0 0 0 0 0 0 0 0 
0 0 0 0 0 0 0 0 0 
0 0 0 0 0 0 0 0 0 
0 0 0 0 0 0 0 0 0 
0 0 0 0 0 0 0 0 0 
0 0 0 0 0 0 0 0 0 
0 0 0 0 0 0 0 0 0 
0 0 0 0 0 0 0 0 0 
0 0 0 0 0 0 0 0 0 
0 0 0 0 0 0 0 0 0 
0 0 0 0 0 0 0 0 0 
0 0 0 0 0 0 0 0 0 
0 0 0 0 0 0 0 0 0 
0 0 0 0 0 0 0 0 0 
0 0 0 0 0 0 0 0 0 
0 0 0 0 0 0 0 0 0 
0 0 0 0 0 0 0 0 0 
0 0 0 0 0 0 0 0 0 
0 0 0 0 0 0 0 0 0 
0 0 0 0 0 0 0 0 0 
0 0 0 0 0 0 0 0 0 
0 0 0 0 0 0 0 0 0 
0 0 0 0 0 0 0 0 0 
0 0 0 0 0 0 0 0 0 
0 0 0 0 0 0 0 0 0 
0 0 0 0 0 0 0 0 0 
0 0 0 0 0 0 0 0 0 
0 0 0 0 0 0 0 0 0 
0 0 0 0 0 0 0 0 0 
0 0 0 0 0 0 0 0 0 
0 0 0 0 0 0 0 0 0 
0 0 0 0 0 0 0 0 0 
0 0 0 0 0 0 0 0 0 
0 0 0 0 0 0 0 0 0 
0 0 0 0 0 0 0 0 0 
0 0 0 0 0 0 0 0 0 
0 0 0 0 0 0 0 0 0 
0 0 0 0 0 0 0 0 0 
0 0 0 0 0 0 0 0 0 
0 0 0 0 0 0 0 0 0 
0 0 0 0 0 0 0 0 0 
0 0 0 0 0 0 0 0 0 
0 0 0 0 0 0 0 0 0 
0 0 0 0 0 0 0 0 0 
0 0 0 0 0 0 0 0 0 
0 0 0 0 0 0 0 0 0 
0 0 0 0 0 0 0 0 0 
0 0 0 0 0 0 0 0 0 
0 0 0 0 0 0 0 0 0 
0 0 0 0 0 0 0 0 0 
0 0 0 0 0 0 0 0 0 
0 0 0 0 0 0 0 0 0 
0 0 0 0 0 0 0 0 0 
0 0 0 0 0 0 0 0 0 
0 0 0 0 0 0 0 0 0 
0 0 0 0 0 0 0 0 0 
0 0 0 0 0 0 0 0 0 
0 0 0 0 0 0 0 0 0 
0 0 0 0 0 0 0 0 0 
0 0 0 0 0 0 0 0 0 
0 0 0 0 0 0 0 0 0 
0 0 0 0 0 0 0 0 0 
0 0 0 0 0 0 0 0 0 
0 0 0 0 0 0 0 0 0 
0 0 0 0 0 0 0 0 0 
0 0 0 0 0 0 0 0 0 
0 0 0 0 0 0 0 0 0 
0 0 0 0 0 0 0 0 0 
0 0 0 0 0 0 0 0 0 
0 0 0 0 0 0 0 0 0 
0 0 0 0 0 0 0 0 0 
0 0 0 0 0 0 0 0 0 
0 0 0 0 0 0 0 0 0 
0 0 0 0 0 0 0 0 0 
0 0 0 0 0 0 0 0 0 
0 0 0 0 0 0 0 0 0 
0 0 0 0 0 0 0 0 0 
0 0 0 0 0 0 0 0 0 
0 0 0 0 0 0 0 0 0 
0 0 0 0 0 0 0 0 0 
0 0 0 0 0 0 0 0 0 
0 0 0 0 0 0 0 0 0 
0 0 0 0 0 0 0 0 0 
0 0 0 0 0 0 0 0 0 
0 0 0 0 0 0 0 0 0 
0 0 0 0 0 0 0 0 0 
0 0 0 0 0 0 0 0 0 
0 0 0 0 0 0 0 0 0 
0 0 0 0 0 0 0 0 0 
0 0 0 0 0 0 0 0 0 
0 0 0 0 0 0 0 0 0 
0 0 0 0 0 0 0 0 0 
0 0 0 0 0 0 0 0 0 
0 0 0 0 0 0 0 0 0 
0 0 0 0 0 0 0 0 0 
0 0 0 0 0 0 0 0 0 
0 0 0 0 0 0 0 0 0 
0 0 0 0 0 0 0 0 0 
0 0 0 0 0 0 0 0 0 
0 0 0 0 0 0 0 0 0 
0 0 0 0 0 0 0 0 0 
0 0 0 0 0 0 0 0 0 
0 0 0 0 0 0 0 0 0 
0 0 0 0 0 0 0 0 0 
0 0 0 0 0 0 0 0 0 
0 0 0 0 0 0 0 0 0 
0 0 0 0 0 0 0 0 0 
0 0 0 0 0 0 0 0 0 
0 0 0 0 0 0 0 0 0 
0 0 0 0 0 0 0 0 0 
0 0 0 0 0 0 0 0 0 
0 0 0 0 0 0 0 0 0 
0 0 0 0 0 0 0 0 0 
0 0 0 0 0 0 0 0 0 
0 0 0 0 0 0 0 0 0 
0 0 0 0 0 0 0 0 0 
0 0 0 0 0 0 0 0 0 
0 0 0 0 0 0 0 0 0 
0 0 0 0 0 0 0 0 0 
0 0 0 0 0 0 0 0 0 
0 0 0 0 0 0 0 0 0 
0 0 0 0 0 0 0 0 0 
0 0 0 0 0 0 0 0 0 
0 0 0 0 0 0 0 0 0 
0 0 0 0 0 0 0 0 0 
0 0 0 0 0 0 0 0 0 
0 0 0 0 0 0 0 0 0 
0 0 0 0 0 0 0 0 0 
0 0 0 0 0 0 0 0 0 
0 0 0 0 0 0 0 0 0 
0 0 0 0 0 0 0 0 0 
0 0 0 0 0 0 0 0 0 
0 0 0 0 0 0 0 0 0 
0 0 0 0 0 0 0 0 0 
0 0 0 0 0 0 0 0 0 
0 0 0 0 0 0 0 0 0 
0 0 0 0 0 0 0 0 0 
0 0 0 0 0 0 0 0 0 
0 0 0 0 0 0 0 0 0 
0 0 0 0 0 0 0 0 0 
0 0 0 0 0 0 0 0 0 
0 0 0 0 0 0 0 0 0 
0 0 0 0 0 0 0 0 0 
0 0 0 0 0 0 0 0 0 
0 0 0 0 0 0 0 0 0 
0 0 0 0 0 0 0 0 0 
0 0 0 0 0 0 0 0 0 
0 0 0 0 0 0 0 0 0 
0 0 0 0 0 0 0 0 0 
0 0 0 0 0 0 0 0 0 
0 0 0 0 0 0 0 0 0 
0 0 0 0 0 0 0 0 0 
0 0 0 0 0 0 0 0 0 
0 0 0 0 0 0 0 0 0 
0 0 0 0 0 0 0 0 0 
0 0 0 0 0 0 0 0 0 
0 0 0 0 0 0 0 0 0 
0 0 0 0 0 0 0 0 0 
0 0 0 0 0 0 0 0 0 
0 0 0 0 0 0 0 0 0 
0 0 0 0 0 0 0 0 0 
0 0 0 0 0 0 0 0 0 
0 0 0 0 0 0 0 0 0 
0 0 0 0 0 0 0 0 0 
0 0 0 0 0 0 0 0 0 
0 0 0 0 0 0 0 0 0 
0 0 0 0 0 0 0 0 0 
0 0 0 0 0 0 0 0 0 
0 0 0 0 0 0 0 0 0 
0 0 0 0 0 0 0 0 0 
0 0 0 0 0 0 0 0 0 
0 0 0 0 0 0 0 0 0 
0 0 0 0 0 0 0 0 0 
0 0 0 0 0 0 0 0 0 
0 0 0 0 0 0 0 0 0 
0 0 0 0 0 0 0 0 0 
0 0 0 0 0 0 0 0 0 
0 0 0 0 0 0 0 0 0 
0 0 0 0 0 0 0 0 0 
0 0 0 0 0 0 0 0 0 
0 0 0 0 0 0 0 0 0 
0 0 0 0 0 0 0 0 0 
0 0 0 0 0 0 0 0 0 
0 0 0 0 0 0 0 0 0 
0 0 0 0 0 0 0 0 0 
0 0 0 0 0 0 0 0 0 
0 0 0 0 0 0 0 0 0 
0 0 0 0 0 0 0 0 0 
0 0 0 0 0 0 0 0 0 
0 0 0 0 0 0 0 0 0 
0 0 0 0 0 0 0 0 0 
0 0 0 0 0 0 0 0 0 
0 0 0 0 0 0 0 0 0 
0 0 0 0 0 0 0 0 0 
0 0 0 0 0 0 0 0 0 
0 0 0 0 0 0 0 0 0 
0 0 0 0 0 0 0 0 0 
0 0 0 0 0 0 0 0 0 
0 0 0 0 0 0 0 0 0 
0 0 0 0 0 0 0 0 0 
0 0 0 0 0 0 0 0 0 
0 0 0 0 0 0 0 0 0 
0 0 0 0 0 0 0 0 0 
0 0 0 0 0 0 0 0 0 
0 0 0 0 0 0 0 0 0 
0 0 0 0 0 0 0 0 0 
0 0 0 0 0 0 0 0 0 
0 0 0 0 0 0 0 0 0 
0 0 0 0 0 0 0 0 0 
0 0 0 0 0 0 0 0 0 
0 0 0 0 0 0 0 0 0 
0 0 0 0 0 0 0 0 0 
0 0 0 0 0 0 0 0 0 
0 0 0 0 0 0 0 0 0 
0 0 0 0 0 0 0 0 0 
0 0 0 0 0 0 0 0 0 
0 0 0 0 0 0 0 0 0 
0 0 0 0 0 0 0 0 0 
0 0 0 0 0 0 0 0 0 
0 0 0 0 0 0 0 0 0 
0 0 0 0 0 0 0 0 0 
0 0 0 0 0 0 0 0 0 
0 0 0 0 0 0 0 0 0 
0 0 0 0 0 0 0 0 0 
0 0 0 0 0 0 0 0 0 
0 0 0 0 0 0 0 0 0 
0 0 0 0 0 0 0 0 0 
0 0 0 0 0 0 0 0 0 
0 0 0 0 0 0 0 0 0 
0 0 0 0 0 0 0 0 0 
0 0 0 0 0 0 0 0 0 
0 0 0 0 0 0 0 0 0 
0 0 0 0 0 0 0 0 0 
0 0 0 0 0 0 0 0 0 
0 0 0 0 0 0 0 0 0 
0 0 0 0 0 0 0 0 0 
0 0 0 0 0 0 0 0 0 
0 0 0 0 0 0 0 0 0 
0 0 0 0 0 0 0 0 0 
0 0 0 0 0 0 0 0 0 
0 0 0 0 0 0 0 0 0 
0 0 0 0 0 0 0 0 0 
0 0 0 0 0 0 0 0 0 
0 0 0 0 0 0 0 0 0 
0 0 0 0 0 0 0 0 0 
0 0 0 0 0 0 0 0 0 
0 0 0 0 0 0 0 0 0 
0 0 0 0 0 0 0 0 0 
0 0 0 0 0 0 0 0 0 
0 0 0 0 0 0 0 0 0 
0 0 0 0 0 0 0 0 0 
0 0 0 0 0 0 0 0 0 
0 0 0 0 0 0 0 0 0 
0 0 0 0 0 0 0 0 0 
0 0 0 0 0 0 0 0 1 
1 1 1 1 1 1 1 1 1 
1 1 2 2 2 2 2 2 2 
2 2 2 2 2 3 3 3 3 
3 3 3 3 3 3 3 3 4 
4 4 4 4 4 4 4 4 4 
4 4 5 5 5 5 5 5 5 
5 5 5 5 5 6 6 6 6 
6 6 6 6 6 6 6 6 7 
7 7 7 7 7 7 7 7 7 
7 7 8 8 8 8 8 8 8 
8 8 8 8 8 9 9 9 9 
9 9 9 9 9 9 9 9 10 
10 10 10 10 10 10 10 10 10 
10 10 11 11 11 11 11 11 11 
11 11 11 11 11 12 12 12 12 
12 12 12 12 12 12 12 12 13 
13 13 13 13 13 13 13 13 13 
13 13 14 14 14 14 14 14 14 
14 14 14 14 14 15 15 15 15 
15 15 15 15 15 15 15 15 16 
16 16 16 16 16 16 16 16 16 
16 16 17 17 17 17 17 17 17 
17 17 17 17 17 18 18 18 18 
18 18 18 18 18 18 18 18 19 
19 19 19 19 19 19 19 19 19 
19 19 20 20 20 20 20 20 20 
20 20 20 20 20 21 21 21 21 
21 21 21 21 21 21 21 21 22 
22 22 22 22 22 22 22 22 22 
22 22 23 23 23 23 23 23 23 
23 23 23 23 23 24 24 24 24 
24 24 24 24 24 24 24 24 25 
25 25 25 25 25 25 25 25 25 
25 25 26 26 26 26 26 26 26 
26 26 26 26 26 27 27 27 27 
27 27 27 27 27 27 27 27 28 
28 28 28 28 28 28 28 28 28 
28 28 29 29 29 29 29 29 29 
29 29 29 29 29 30 30 30 30 
30 30 30 30 30 30 30 30 31 
31 31 31 31 31 31 31 31 31 
31 31 32 32 32 32 32 32 32 
32 32 32 32 32 33 33 33 33 
33 33 33 33 33 33 33 33 34 
34 34 34 34 34 34 34 34 34 
34 34 35 35 35 35 35 35 35 
35 35 35 35 35 36 36 36 36 
36 36 36 36 36 36 36 36 37 
37 37 37 37 37 37 37 37 37 
37 37 38 38 38 38 38 38 38 
38 38 38 38 38 39 39 39 39 
39 39 39 39 39 39 39 39 40 
40 40 40 40 40 40 40 40 40 
40 40 41 41 41 41 41 41 41 
41 41 41 41 41 42 42 42 42 
42 42 42 42 42 42 42 42 43 
43 43 43 43 43 43 43 43 43 
43 43 44 44 44 44 44 44 44 
44 44 44 44 44 45 45 45 45 
45 45 45 45 45 45 45 45 46 
46 46 46 46 46 46 46 46 46 
46 46 47 47 47 47 47 47 47 
47 47 47 47 47 48 48 48 48 
48 48 48 48 48 48 48 48 49 
49 49 49 49 49 49 49 49 49 
49 49 50 50 50 50 50 50 50 
50 50 50 50 50 51 51 51 51 
51 51 51 51 51 51 51 51 52 
52 52 52 52 52 52 52 52 52 
52 52 53 53 53 53 53 53 53 
53 53 53 53 53 54 54 54 54 
54 54 54 54 54 54 54 54 55 
55 55 55 55 55 55 55 55 55 
55 55 56 56 56 56 56 56 56 
56 56 56 56 56 57 57 57 57 
57 57 57 57 57 57 57 57 58 
58 58 58 58 58 58 58 58 58 
58 58 59 59 59 59 59 59 59 
59 59 59 59 59 60 60 60 60 
60 60 60 60 60 60 60 60 61 
61 61 61 61 61 61 61 61 61 
61 61 62 62 62 62 62 62 62 
62 62 62 62 62 63 63 63 63 
63 63 63 63 63 63 63 63 64 
64 64 64 64 64 64 64 64 64 
64 64 65 65 65 65 65 65 65 
65 65 65 65 65 66 66 66 66 
66 66 66 66 66 66 66 66 67 
67 67 67 67 67 67 67 67 67 
67 67 68 68 68 68 68 68 68 
68 68 68 68 68 69 69 69 69 
69 69 69 69 69 69 69 69 70 
70 70 70 70 70 70 70 70 70 
70 70 71 71 71 71 71 71 71 
71 71 71 71 71 72 72 72 72 
72 72 72 72 72 72 72 72 73 
73 73 73 73 73 73 73 73 73 
73 73 74 74 74 74 74 74 74 
74 74 74 74 74 75 75 75 75 
75 75 75 75 75 75 75 75 76 
76 76 76 76 76 76 76 76 76 
76 76 77 77 77 77 77 77 77 
77 77 77 77 77 78 78 78 78 
78 78 78 78 78 78 78 78 79 
79 79 79 79 79 79 79 79 79 
79 79 80 80 80 80 80 80 80 
80 80 80 80 80 81 81 81 81 
81 81 81 81 81 81 81 81 82 
82 82 82 82 82 82 82 82 82 
82 82 83 83 83 83 83 83 83 
83 83 83 83 83 84 84 84 84 
84 84 84 84 84 84 84 84 85 
85 85 85 85 85 85 85 85 85 
85 85 86 86 86 86 86 86 86 
86 86 86 86 86 87 87 87 87 
87 87 87 87 87 87 87 87 88 
88 88 88 88 88 88 88 88 88 
88 88 89 89 89 89 89 89 89 
89 89 89 89 89 90 90 90 90 
90 90 90 90 90 90 90 90 91 
91 91 91 91 91 91 91 91 91 
91 91 92 92 92 92 92 92 92 
92 92 92 92 92 93 93 93 93 
93 93 93 93 93 93 93 93 94 
94 94 94 94 94 94 94 94 94 
94 94 95 95 95 95 95 95 95 
95 95 95 95 95 96 96 96 96 
96 96 96 96 96 96 96 96 97 
97 97 97 97 97 97 97 97 97 
97 97 98 98 98 98 98 98 98 
98 98 98 98 98 99 99 99 99 
99 99 99 99 99 99 99 99 100 
100 100 100 100 100 100 100 100 100 
100 100 101 101 101 101 101 101 101 
101 101 101 101 101 102 102 102 102 
102 102 102 102 102 102 102 102 103 
103 103 103 103 103 103 103 103 103 
103 103 104 104 104 104 104 104 104 