# vtk DataFile Version 4.0
vtk output
ASCII
DATASET POLYDATA
POINTS 872 double
-2.5 -0.5 -2.5 -2.5 -0.5 27.5 -2.5 0.5 27.5 
-2.5 0.5 -2.5 27.5 0.5 -2.5 27.5 -0.5 -2.5 
-0.5 -0.5 5 -0.5 -0.5 10 -0.5 -0.5 -6.12323e-17 
-0.25 -0.5 0.433013 -0.25 -0.5 4.56699 0.25 -0.5 -0.433013 
-0.25 -0.5 -0.433013 27.5 -0.5 27.5 27.5 0.5 27.5 
-0.5 -0.5 20 -0.5 -0.5 15 -0.25 -0.5 20.433 
-0.25 -0.5 24.567 -0.5 -0.5 25 -0.25 -0.5 25.433 
9.75 -0.5 25.433 4.75 -0.5 25.433 5.25 -0.5 25.433 
0.25 -0.5 25.433 10.25 -0.5 25.433 14.75 -0.5 25.433 
15.25 -0.5 25.433 19.75 -0.5 25.433 20.25 -0.5 25.433 
24.75 -0.5 25.433 25.25 -0.5 25.433 0.25 0.5 25.433 
-0.25 0.5 25.433 -0.25 0.5 20.433 -0.5 0.5 20 
-0.5 0.5 25 -0.25 0.5 24.567 -0.5 0.5 15 
-0.5 0.5 10 -0.5 0.5 5 -0.25 0.5 4.56699 
-0.25 0.5 0.433013 -0.5 0.5 -6.12323e-17 -0.25 0.5 -0.433013 
9.75 0.5 -0.433013 4.75 0.5 -0.433013 5.25 0.5 -0.433013 
0.25 0.5 -0.433013 10.25 0.5 -0.433013 14.75 0.5 -0.433013 
15.25 0.5 -0.433013 19.75 0.5 -0.433013 20.25 0.5 -0.433013 
24.75 0.5 -0.433013 25.25 0.5 -0.433013 25.5 0.5 5 
25.5 0.5 10 25.5 0.5 0 25.25 0.5 0.433013 
25.25 0.5 4.56699 5.25 -0.5 -0.433013 10.25 -0.5 -0.433013 
9.75 -0.5 -0.433013 14.75 -0.5 -0.433013 15.25 -0.5 -0.433013 
19.75 -0.5 -0.433013 20.25 -0.5 -0.433013 24.75 -0.5 -0.433013 
25.25 -0.5 -0.433013 4.75 -0.5 -0.433013 25.5 -0.5 10 
25.5 -0.5 5 25.25 -0.5 4.56699 25.25 -0.5 0.433013 
25.5 -0.5 0 -0.25 -0.5 5.43301 -0.25 -0.5 9.56699 
-0.25 -0.5 10.433 -0.25 -0.5 14.567 0.25 -0.5 0.433013 
0.25 -0.5 4.56699 4.5 -0.5 -6.12323e-17 0.5 -0.5 0 
25.25 -0.5 20.433 25.5 -0.5 20 25.5 -0.5 25 
25.25 -0.5 24.567 25.5 -0.5 15 25.5 0.5 25 
25.5 0.5 15 25.5 0.5 20 25.25 0.5 25.433 
5.25 0.5 25.433 10.25 0.5 25.433 9.75 0.5 25.433 
14.75 0.5 25.433 15.25 0.5 25.433 19.75 0.5 25.433 
20.25 0.5 25.433 24.75 0.5 25.433 4.75 0.5 25.433 
-0.25 -0.5 19.567 -0.25 -0.5 15.433 0.25 -0.5 20.433 
0.25 -0.5 24.567 9.5 -0.5 25 5.5 -0.5 25 
0.5 -0.5 25 4.5 -0.5 25 10.5 -0.5 25 
14.5 -0.5 25 15.5 -0.5 25 19.5 -0.5 25 
20.5 -0.5 25 24.5 -0.5 25 4.5 0.5 25 
0.5 0.5 25 0.25 0.5 20.433 0.25 0.5 24.567 
-0.25 0.5 19.567 -0.25 0.5 15.433 -0.25 0.5 14.567 
-0.25 0.5 10.433 -0.25 0.5 9.56699 -0.25 0.5 5.43301 
0.25 0.5 4.56699 0.25 0.5 0.433013 9.5 0.5 -6.12323e-17 
5.5 0.5 0 0.5 0.5 0 4.5 0.5 -6.12323e-17 
10.5 0.5 0 14.5 0.5 -6.12323e-17 15.5 0.5 0 
19.5 0.5 -6.12323e-17 20.5 0.5 0 24.5 0.5 -6.12323e-17 
25.25 0.5 5.43301 25.25 0.5 9.56699 25.25 0.5 10.433 
25.25 0.5 14.567 24.75 0.5 0.433013 24.75 0.5 4.56699 
5.5 -0.5 0 9.5 -0.5 -6.12323e-17 14.5 -0.5 -6.12323e-17 
10.5 -0.5 0 19.5 -0.5 -6.12323e-17 15.5 -0.5 0 
24.5 -0.5 -6.12323e-17 20.5 -0.5 0 25.25 -0.5 9.56699 
25.25 -0.5 5.43301 25.25 -0.5 14.567 25.25 -0.5 10.433 
24.75 -0.5 0.433013 24.75 -0.5 4.56699 0.25 -0.5 5.43301 
0.25 -0.5 9.56699 0.25 -0.5 10.433 0.25 -0.5 14.567 
4.75 -0.5 0.433013 4.75 -0.5 4.56699 4.5 -0.5 5 
0.5 -0.5 5 24.75 -0.5 20.433 24.75 -0.5 24.567 
25.25 -0.5 19.567 25.25 -0.5 15.433 25.25 0.5 24.567 
25.25 0.5 20.433 25.25 0.5 15.433 25.25 0.5 19.567 
5.5 0.5 25 9.5 0.5 25 14.5 0.5 25 
10.5 0.5 25 19.5 0.5 25 15.5 0.5 25 
24.5 0.5 25 20.5 0.5 25 0.25 -0.5 19.567 
0.25 -0.5 15.433 0.5 -0.5 20 4.5 -0.5 20 
4.75 -0.5 20.433 4.75 -0.5 24.567 5.25 -0.5 20.433 
5.5 -0.5 20 9.5 -0.5 20 9.75 -0.5 20.433 
9.75 -0.5 24.567 5.25 -0.5 24.567 10.25 -0.5 20.433 
10.5 -0.5 20 14.5 -0.5 20 14.75 -0.5 20.433 
14.75 -0.5 24.567 10.25 -0.5 24.567 15.25 -0.5 20.433 
15.5 -0.5 20 19.5 -0.5 20 19.75 -0.5 20.433 
19.75 -0.5 24.567 15.25 -0.5 24.567 20.25 -0.5 20.433 
20.5 -0.5 20 24.5 -0.5 20 20.25 -0.5 24.567 
4.5 0.5 20 0.5 0.5 20 4.75 0.5 24.567 
0.25 0.5 19.567 0.25 0.5 15.433 0.25 0.5 14.567 
0.25 0.5 10.433 0.25 0.5 9.56699 0.25 0.5 5.43301 
0.5 0.5 5 4.5 0.5 5 4.75 0.5 4.56699 
4.75 0.5 0.433013 5.25 0.5 4.56699 5.5 0.5 5 
9.5 0.5 5 9.75 0.5 4.56699 9.75 0.5 0.433013 
5.25 0.5 0.433013 10.25 0.5 4.56699 10.5 0.5 5 
14.5 0.5 5 14.75 0.5 4.56699 14.75 0.5 0.433013 
10.25 0.5 0.433013 15.25 0.5 4.56699 15.5 0.5 5 
19.5 0.5 5 19.75 0.5 4.56699 19.75 0.5 0.433013 
15.25 0.5 0.433013 20.25 0.5 4.56699 20.5 0.5 5 
24.5 0.5 5 20.25 0.5 0.433013 24.75 0.5 5.43301 
24.75 0.5 9.56699 24.75 0.5 10.433 24.75 0.5 14.567 
5.25 -0.5 0.433013 9.75 -0.5 0.433013 9.75 -0.5 4.56699 
9.5 -0.5 5 5.5 -0.5 5 5.25 -0.5 4.56699 
10.25 -0.5 0.433013 14.75 -0.5 0.433013 14.75 -0.5 4.56699 
14.5 -0.5 5 10.5 -0.5 5 10.25 -0.5 4.56699 
15.25 -0.5 0.433013 19.75 -0.5 0.433013 19.75 -0.5 4.56699 
19.5 -0.5 5 15.5 -0.5 5 15.25 -0.5 4.56699 
20.25 -0.5 0.433013 24.5 -0.5 5 20.5 -0.5 5 
20.25 -0.5 4.56699 24.75 -0.5 5.43301 24.75 -0.5 9.56699 
24.75 -0.5 10.433 24.75 -0.5 14.567 4.75 -0.5 5.43301 
4.75 -0.5 9.56699 4.5 -0.5 10 0.5 -0.5 10 
4.75 -0.5 10.433 4.75 -0.5 14.567 4.5 -0.5 15 
0.5 -0.5 15 24.75 -0.5 15.433 24.75 -0.5 19.567 
24.75 0.5 24.567 24.75 0.5 20.433 24.75 0.5 15.433 
24.75 0.5 19.567 5.25 0.5 24.567 9.75 0.5 24.567 
9.75 0.5 20.433 9.5 0.5 20 5.5 0.5 20 
5.25 0.5 20.433 10.25 0.5 24.567 14.75 0.5 24.567 
14.75 0.5 20.433 14.5 0.5 20 10.5 0.5 20 
10.25 0.5 20.433 15.25 0.5 24.567 19.75 0.5 24.567 
19.75 0.5 20.433 19.5 0.5 20 15.5 0.5 20 
15.25 0.5 20.433 20.25 0.5 24.567 24.5 0.5 20 
20.5 0.5 20 20.25 0.5 20.433 4.75 -0.5 15.433 
4.75 -0.5 19.567 5.25 -0.5 15.433 5.5 -0.5 15 
9.5 -0.5 15 9.75 -0.5 15.433 9.75 -0.5 19.567 
5.25 -0.5 19.567 10.25 -0.5 15.433 10.5 -0.5 15 
14.5 -0.5 15 14.75 -0.5 15.433 14.75 -0.5 19.567 
10.25 -0.5 19.567 15.25 -0.5 15.433 15.5 -0.5 15 
19.5 -0.5 15 19.75 -0.5 15.433 19.75 -0.5 19.567 
15.25 -0.5 19.567 20.25 -0.5 15.433 20.5 -0.5 15 
24.5 -0.5 15 20.25 -0.5 19.567 4.75 0.5 20.433 
4.75 0.5 19.567 4.75 0.5 15.433 4.5 0.5 15 
0.5 0.5 15 4.75 0.5 14.567 4.75 0.5 10.433 
4.5 0.5 10 0.5 0.5 10 4.75 0.5 9.56699 
4.75 0.5 5.43301 5.25 0.5 9.56699 5.5 0.5 10 
9.5 0.5 10 9.75 0.5 9.56699 9.75 0.5 5.43301 
5.25 0.5 5.43301 10.25 0.5 9.56699 10.5 0.5 10 
14.5 0.5 10 14.75 0.5 9.56699 14.75 0.5 5.43301 
10.25 0.5 5.43301 15.25 0.5 9.56699 15.5 0.5 10 
19.5 0.5 10 19.75 0.5 9.56699 19.75 0.5 5.43301 
15.25 0.5 5.43301 20.25 0.5 9.56699 20.5 0.5 10 
24.5 0.5 10 20.25 0.5 5.43301 20.25 0.5 14.567 
20.5 0.5 15 24.5 0.5 15 20.25 0.5 10.433 
5.25 -0.5 5.43301 9.75 -0.5 5.43301 9.75 -0.5 9.56699 
9.5 -0.5 10 5.5 -0.5 10 5.25 -0.5 9.56699 
10.25 -0.5 5.43301 14.75 -0.5 5.43301 14.75 -0.5 9.56699 
14.5 -0.5 10 10.5 -0.5 10 10.25 -0.5 9.56699 
15.25 -0.5 5.43301 19.75 -0.5 5.43301 19.75 -0.5 9.56699 
19.5 -0.5 10 15.5 -0.5 10 15.25 -0.5 9.56699 
20.25 -0.5 5.43301 24.5 -0.5 10 20.5 -0.5 10 
20.25 -0.5 9.56699 20.25 -0.5 10.433 20.25 -0.5 14.567 
5.25 -0.5 10.433 5.25 -0.5 14.567 20.25 0.5 19.567 
20.25 0.5 15.433 5.25 0.5 19.567 9.75 0.5 19.567 
9.75 0.5 15.433 9.5 0.5 15 5.5 0.5 15 
5.25 0.5 15.433 10.25 0.5 19.567 14.75 0.5 19.567 
14.75 0.5 15.433 14.5 0.5 15 10.5 0.5 15 
10.25 0.5 15.433 15.25 0.5 19.567 19.75 0.5 19.567 
19.75 0.5 15.433 19.5 0.5 15 15.5 0.5 15 
15.25 0.5 15.433 9.75 -0.5 10.433 9.75 -0.5 14.567 
10.25 -0.5 10.433 14.75 -0.5 10.433 14.75 -0.5 14.567 
10.25 -0.5 14.567 15.25 -0.5 10.433 19.75 -0.5 10.433 
19.75 -0.5 14.567 15.25 -0.5 14.567 5.25 0.5 14.567 
5.25 0.5 10.433 9.75 0.5 14.567 9.75 0.5 10.433 
10.25 0.5 14.567 14.75 0.5 14.567 14.75 0.5 10.433 
10.25 0.5 10.433 15.25 0.5 14.567 19.75 0.5 14.567 
19.75 0.5 10.433 15.25 0.5 10.433 0.5 0.5 0 
0.25 0.5 -0.433013 0.25 -0.5 -0.433013 0.5 -0.5 0 
0.25 0.5 0.433013 0.25 -0.5 0.433013 -0.25 0.5 -0.433013 
-0.25 -0.5 -0.433013 -0.25 0.5 0.433013 -0.25 -0.5 0.433013 
-0.5 0.5 -6.12323e-17 -0.5 -0.5 -6.12323e-17 0.5 0.5 5 
0.25 0.5 4.56699 0.25 -0.5 4.56699 0.5 -0.5 5 
0.25 0.5 5.43301 0.25 -0.5 5.43301 -0.25 0.5 4.56699 
-0.25 -0.5 4.56699 -0.25 0.5 5.43301 -0.25 -0.5 5.43301 
-0.5 0.5 5 -0.5 -0.5 5 0.5 0.5 10 
0.25 0.5 9.56699 0.25 -0.5 9.56699 0.5 -0.5 10 
0.25 0.5 10.433 0.25 -0.5 10.433 -0.25 0.5 9.56699 
-0.25 -0.5 9.56699 -0.25 0.5 10.433 -0.25 -0.5 10.433 
-0.5 0.5 10 -0.5 -0.5 10 0.5 0.5 15 
0.25 0.5 14.567 0.25 -0.5 14.567 0.5 -0.5 15 
0.25 0.5 15.433 0.25 -0.5 15.433 -0.25 0.5 14.567 
-0.25 -0.5 14.567 -0.25 0.5 15.433 -0.25 -0.5 15.433 
-0.5 0.5 15 -0.5 -0.5 15 0.5 0.5 20 
0.25 0.5 19.567 0.25 -0.5 19.567 0.5 -0.5 20 
0.25 0.5 20.433 0.25 -0.5 20.433 -0.25 0.5 19.567 
-0.25 -0.5 19.567 -0.25 0.5 20.433 -0.25 -0.5 20.433 
-0.5 0.5 20 -0.5 -0.5 20 0.5 0.5 25 
0.25 0.5 24.567 0.25 -0.5 24.567 0.5 -0.5 25 
0.25 0.5 25.433 0.25 -0.5 25.433 -0.25 0.5 24.567 
-0.25 -0.5 24.567 -0.25 0.5 25.433 -0.25 -0.5 25.433 
-0.5 0.5 25 -0.5 -0.5 25 5.5 0.5 0 
5.25 0.5 -0.433013 5.25 -0.5 -0.433013 5.5 -0.5 0 
5.25 0.5 0.433013 5.25 -0.5 0.433013 4.75 0.5 -0.433013 
4.75 -0.5 -0.433013 4.75 0.5 0.433013 4.75 -0.5 0.433013 
4.5 0.5 -6.12323e-17 4.5 -0.5 -6.12323e-17 5.5 0.5 5 
5.25 0.5 4.56699 5.25 -0.5 4.56699 5.5 -0.5 5 
5.25 0.5 5.43301 5.25 -0.5 5.43301 4.75 0.5 4.56699 
4.75 -0.5 4.56699 4.75 0.5 5.43301 4.75 -0.5 5.43301 
4.5 0.5 5 4.5 -0.5 5 5.5 0.5 10 
5.25 0.5 9.56699 5.25 -0.5 9.56699 5.5 -0.5 10 
5.25 0.5 10.433 5.25 -0.5 10.433 4.75 0.5 9.56699 
4.75 -0.5 9.56699 4.75 0.5 10.433 4.75 -0.5 10.433 
4.5 0.5 10 4.5 -0.5 10 5.5 0.5 15 
5.25 0.5 14.567 5.25 -0.5 14.567 5.5 -0.5 15 
5.25 0.5 15.433 5.25 -0.5 15.433 4.75 0.5 14.567 
4.75 -0.5 14.567 4.75 0.5 15.433 4.75 -0.5 15.433 
4.5 0.5 15 4.5 -0.5 15 5.5 0.5 20 
5.25 0.5 19.567 5.25 -0.5 19.567 5.5 -0.5 20 
5.25 0.5 20.433 5.25 -0.5 20.433 4.75 0.5 19.567 
4.75 -0.5 19.567 4.75 0.5 20.433 4.75 -0.5 20.433 
4.5 0.5 20 4.5 -0.5 20 5.5 0.5 25 
5.25 0.5 24.567 5.25 -0.5 24.567 5.5 -0.5 25 
5.25 0.5 25.433 5.25 -0.5 25.433 4.75 0.5 24.567 
4.75 -0.5 24.567 4.75 0.5 25.433 4.75 -0.5 25.433 
4.5 0.5 25 4.5 -0.5 25 10.5 0.5 0 
10.25 0.5 -0.433013 10.25 -0.5 -0.433013 10.5 -0.5 0 
10.25 0.5 0.433013 10.25 -0.5 0.433013 9.75 0.5 -0.433013 
9.75 -0.5 -0.433013 9.75 0.5 0.433013 9.75 -0.5 0.433013 
9.5 0.5 -6.12323e-17 9.5 -0.5 -6.12323e-17 10.5 0.5 5 
10.25 0.5 4.56699 10.25 -0.5 4.56699 10.5 -0.5 5 
10.25 0.5 5.43301 10.25 -0.5 5.43301 9.75 0.5 4.56699 
9.75 -0.5 4.56699 9.75 0.5 5.43301 9.75 -0.5 5.43301 
9.5 0.5 5 9.5 -0.5 5 10.5 0.5 10 
10.25 0.5 9.56699 10.25 -0.5 9.56699 10.5 -0.5 10 
10.25 0.5 10.433 10.25 -0.5 10.433 9.75 0.5 9.56699 
9.75 -0.5 9.56699 9.75 0.5 10.433 9.75 -0.5 10.433 
9.5 0.5 10 9.5 -0.5 10 10.5 0.5 15 
10.25 0.5 14.567 10.25 -0.5 14.567 10.5 -0.5 15 
10.25 0.5 15.433 10.25 -0.5 15.433 9.75 0.5 14.567 
9.75 -0.5 14.567 9.75 0.5 15.433 9.75 -0.5 15.433 
9.5 0.5 15 9.5 -0.5 15 10.5 0.5 20 
10.25 0.5 19.567 10.25 -0.5 19.567 10.5 -0.5 20 
10.25 0.5 20.433 10.25 -0.5 20.433 9.75 0.5 19.567 
9.75 -0.5 19.567 9.75 0.5 20.433 9.75 -0.5 20.433 
9.5 0.5 20 9.5 -0.5 20 10.5 0.5 25 
10.25 0.5 24.567 10.25 -0.5 24.567 10.5 -0.5 25 
10.25 0.5 25.433 10.25 -0.5 25.433 9.75 0.5 24.567 
9.75 -0.5 24.567 9.75 0.5 25.433 9.75 -0.5 25.433 
9.5 0.5 25 9.5 -0.5 25 15.5 0.5 0 
15.25 0.5 -0.433013 15.25 -0.5 -0.433013 15.5 -0.5 0 
15.25 0.5 0.433013 15.25 -0.5 0.433013 14.75 0.5 -0.433013 
14.75 -0.5 -0.433013 14.75 0.5 0.433013 14.75 -0.5 0.433013 
14.5 0.5 -6.12323e-17 14.5 -0.5 -6.12323e-17 15.5 0.5 5 
15.25 0.5 4.56699 15.25 -0.5 4.56699 15.5 -0.5 5 
15.25 0.5 5.43301 15.25 -0.5 5.43301 14.75 0.5 4.56699 
14.75 -0.5 4.56699 14.75 0.5 5.43301 14.75 -0.5 5.43301 
14.5 0.5 5 14.5 -0.5 5 15.5 0.5 10 
15.25 0.5 9.56699 15.25 -0.5 9.56699 15.5 -0.5 10 
15.25 0.5 10.433 15.25 -0.5 10.433 14.75 0.5 9.56699 
14.75 -0.5 9.56699 14.75 0.5 10.433 14.75 -0.5 10.433 
14.5 0.5 10 14.5 -0.5 10 15.5 0.5 15 
15.25 0.5 14.567 15.25 -0.5 14.567 15.5 -0.5 15 
15.25 0.5 15.433 15.25 -0.5 15.433 14.75 0.5 14.567 
14.75 -0.5 14.567 14.75 0.5 15.433 14.75 -0.5 15.433 
14.5 0.5 15 14.5 -0.5 15 15.5 0.5 20 
15.25 0.5 19.567 15.25 -0.5 19.567 15.5 -0.5 20 
15.25 0.5 20.433 15.25 -0.5 20.433 14.75 0.5 19.567 
14.75 -0.5 19.567 14.75 0.5 20.433 14.75 -0.5 20.433 
14.5 0.5 20 14.5 -0.5 20 15.5 0.5 25 
15.25 0.5 24.567 15.25 -0.5 24.567 15.5 -0.5 25 
15.25 0.5 25.433 15.25 -0.5 25.433 14.75 0.5 24.567 
14.75 -0.5 24.567 14.75 0.5 25.433 14.75 -0.5 25.433 
14.5 0.5 25 14.5 -0.5 25 20.5 0.5 0 
20.25 0.5 -0.433013 20.25 -0.5 -0.433013 20.5 -0.5 0 
20.25 0.5 0.433013 20.25 -0.5 0.433013 19.75 0.5 -0.433013 
19.75 -0.5 -0.433013 19.75 0.5 0.433013 19.75 -0.5 0.433013 
19.5 0.5 -6.12323e-17 19.5 -0.5 -6.12323e-17 20.5 0.5 5 
20.25 0.5 4.56699 20.25 -0.5 4.56699 20.5 -0.5 5 
20.25 0.5 5.43301 20.25 -0.5 5.43301 19.75 0.5 4.56699 
19.75 -0.5 4.56699 19.75 0.5 5.43301 19.75 -0.5 5.43301 
19.5 0.5 5 19.5 -0.5 5 20.5 0.5 10 
20.25 0.5 9.56699 20.25 -0.5 9.56699 20.5 -0.5 10 
20.25 0.5 10.433 20.25 -0.5 10.433 19.75 0.5 9.56699 
19.75 -0.5 9.56699 19.75 0.5 10.433 19.75 -0.5 10.433 
19.5 0.5 10 19.5 -0.5 10 20.5 0.5 15 
20.25 0.5 14.567 20.25 -0.5 14.567 20.5 -0.5 15 
20.25 0.5 15.433 20.25 -0.5 15.433 19.75 0.5 14.567 
19.75 -0.5 14.567 19.75 0.5 15.433 19.75 -0.5 15.433 
19.5 0.5 15 19.5 -0.5 15 20.5 0.5 20 
20.25 0.5 19.567 20.25 -0.5 19.567 20.5 -0.5 20 
20.25 0.5 20.433 20.25 -0.5 20.433 19.75 0.5 19.567 
19.75 -0.5 19.567 19.75 0.5 20.433 19.75 -0.5 20.433 
19.5 0.5 20 19.5 -0.5 20 20.5 0.5 25 
20.25 0.5 24.567 20.25 -0.5 24.567 20.5 -0.5 25 
20.25 0.5 25.433 20.25 -0.5 25.433 19.75 0.5 24.567 
19.75 -0.5 24.567 19.75 0.5 25.433 19.75 -0.5 25.433 
19.5 0.5 25 19.5 -0.5 25 25.5 0.5 0 
25.25 0.5 -0.433013 25.25 -0.5 -0.433013 25.5 -0.5 0 
25.25 0.5 0.433013 25.25 -0.5 0.433013 24.75 0.5 -0.433013 
24.75 -0.5 -0.433013 24.75 0.5 0.433013 24.75 -0.5 0.433013 
24.5 0.5 -6.12323e-17 24.5 -0.5 -6.12323e-17 25.5 0.5 5 
25.25 0.5 4.56699 25.25 -0.5 4.56699 25.5 -0.5 5 
25.25 0.5 5.43301 25.25 -0.5 5.43301 24.75 0.5 4.56699 
24.75 -0.5 4.56699 24.75 0.5 5.43301 24.75 -0.5 5.43301 
24.5 0.5 5 24.5 -0.5 5 25.5 0.5 10 
25.25 0.5 9.56699 25.25 -0.5 9.56699 25.5 -0.5 10 
25.25 0.5 10.433 25.25 -0.5 10.433 24.75 0.5 9.56699 
24.75 -0.5 9.56699 24.75 0.5 10.433 24.75 -0.5 10.433 
24.5 0.5 10 24.5 -0.5 10 25.5 0.5 15 
25.25 0.5 14.567 25.25 -0.5 14.567 25.5 -0.5 15 
25.25 0.5 15.433 25.25 -0.5 15.433 24.75 0.5 14.567 
24.75 -0.5 14.567 24.75 0.5 15.433 24.75 -0.5 15.433 
24.5 0.5 15 24.5 -0.5 15 25.5 0.5 20 
25.25 0.5 19.567 25.25 -0.5 19.567 25.5 -0.5 20 
25.25 0.5 20.433 25.25 -0.5 20.433 24.75 0.5 19.567 
24.75 -0.5 19.567 24.75 0.5 20.433 24.75 -0.5 20.433 
24.5 0.5 20 24.5 -0.5 20 25.5 0.5 25 
25.25 0.5 24.567 25.25 -0.5 24.567 25.5 -0.5 25 
25.25 0.5 25.433 25.25 -0.5 25.433 24.75 0.5 24.567 
24.75 -0.5 24.567 24.75 0.5 25.433 24.75 -0.5 25.433 
24.5 0.5 25 24.5 -0.5 25 
POLYGONS 431 2313
4 0 1 2 3 
4 5 4 14 13 
4 0 3 4 5 
4 1 13 14 2 
3 185 311 312 
4 311 313 318 312 
8 313 314 315 316 317 190 189 318 
4 316 319 324 317 
8 319 320 321 322 323 196 195 324 
4 322 325 330 323 
8 325 326 327 328 329 202 201 330 
4 328 331 334 329 
8 331 332 333 283 284 208 207 334 
4 283 169 168 284 
7 185 184 182 183 282 281 311 
4 182 102 103 183 
4 102 15 16 103 
4 15 1 7 16 
4 7 78 79 16 
4 78 160 161 79 
8 160 278 277 279 280 281 282 161 
4 279 396 397 280 
8 396 376 375 418 419 315 314 397 
4 418 420 423 419 
8 420 382 381 421 422 321 320 423 
4 421 424 427 422 
8 424 388 387 425 426 327 326 427 
4 425 394 395 426 
8 394 392 391 273 274 333 332 395 
4 273 155 154 274 
4 1 0 6 7 
4 6 76 77 7 
4 76 158 159 77 
8 158 165 164 275 276 277 278 159 
4 275 372 377 276 
8 372 253 252 373 374 375 376 377 
4 373 378 383 374 
8 378 259 258 379 380 381 382 383 
4 379 384 389 380 
8 384 265 264 385 386 387 388 389 
4 385 390 393 386 
8 390 269 268 271 272 391 392 393 
4 271 153 152 272 
5 0 8 9 10 6 
4 9 80 81 10 
8 80 83 82 162 163 164 165 81 
4 162 249 254 163 
8 249 144 145 250 251 252 253 254 
4 250 255 260 251 
8 255 147 146 256 257 258 259 260 
4 256 261 266 257 
8 261 149 148 262 263 264 265 266 
4 262 267 270 263 
8 267 151 150 156 157 268 269 270 
4 156 74 73 157 
4 144 61 63 145 
4 61 5 62 63 
3 5 64 62 
4 64 146 147 62 
3 5 65 64 
3 5 66 65 
4 66 148 149 65 
3 5 67 66 
3 5 68 67 
4 68 150 151 67 
3 5 69 68 
3 61 70 5 
3 70 11 5 
4 11 12 0 5 
4 70 82 83 11 
3 0 12 8 
5 15 17 18 19 1 
3 19 20 1 
4 17 104 105 18 
8 104 184 185 186 187 109 108 105 
4 186 188 193 187 
8 188 189 190 191 192 106 107 193 
4 106 21 23 107 
4 21 1 22 23 
3 1 24 22 
4 24 108 109 22 
3 1 20 24 
3 21 25 1 
3 25 26 1 
3 26 27 1 
3 27 28 1 
3 28 29 1 
3 29 30 1 
4 30 31 13 1 
4 29 114 115 30 
4 27 112 113 28 
4 25 110 111 26 
4 191 194 199 192 
8 194 195 196 197 198 111 110 199 
4 197 200 205 198 
8 200 201 202 203 204 113 112 205 
4 203 206 209 204 
8 206 207 208 166 167 115 114 209 
4 166 84 87 167 
5 84 85 13 86 87 
3 13 31 86 
3 85 88 13 
3 88 71 13 
4 71 72 5 13 
5 72 73 74 75 5 
3 75 69 5 
4 71 152 153 72 
4 88 154 155 71 
4 85 168 169 88 
3 210 212 335 
4 212 289 294 335 
8 289 174 175 290 291 292 293 294 
4 290 295 300 291 
8 295 177 176 296 297 298 299 300 
4 296 301 306 297 
8 301 179 178 302 303 304 305 306 
4 302 307 310 303 
8 307 181 180 285 286 308 309 310 
4 285 170 171 286 
4 170 89 91 171 
4 89 14 90 91 
4 90 172 173 91 
4 172 287 288 173 
3 14 57 90 
4 57 140 141 90 
4 140 247 248 141 
4 14 4 56 57 
4 56 138 139 57 
4 138 245 246 139 
5 4 58 59 60 56 
4 59 142 143 60 
3 4 55 58 
3 89 92 14 
4 174 93 95 175 
4 93 14 94 95 
3 14 96 94 
4 96 176 177 94 
3 14 97 96 
3 14 98 97 
4 98 178 179 97 
3 14 99 98 
3 14 100 99 
4 100 180 181 99 
3 14 92 100 
3 93 101 14 
3 101 32 14 
4 32 33 2 14 
4 101 116 117 32 
7 210 211 118 119 117 116 212 
4 118 34 37 119 
5 34 35 2 36 37 
3 2 33 36 
3 35 38 2 
3 38 39 2 
4 39 40 3 2 
5 40 41 42 43 3 
3 43 44 3 
4 41 126 127 42 
8 126 219 220 221 222 131 130 127 
4 221 223 228 222 
8 223 224 225 226 227 128 129 228 
4 128 45 47 129 
4 45 3 46 47 
3 3 48 46 
4 48 130 131 46 
3 3 44 48 
3 45 49 3 
3 49 50 3 
3 50 51 3 
3 51 52 3 
3 52 53 3 
3 53 54 3 
4 54 55 4 3 
4 53 136 137 54 
4 51 134 135 52 
4 49 132 133 50 
4 226 229 234 227 
8 229 230 231 232 233 133 132 234 
4 232 235 240 233 
8 235 236 237 238 239 135 134 240 
4 238 241 244 239 
8 241 242 243 143 142 137 136 244 
4 39 124 125 40 
4 124 217 218 125 
8 217 343 342 344 345 220 219 218 
4 344 346 351 345 
8 346 347 348 349 350 225 224 351 
4 349 352 357 350 
8 352 353 354 355 356 231 230 357 
4 355 358 363 356 
8 358 359 360 361 362 237 236 363 
4 361 364 367 362 
8 364 365 366 246 245 243 242 367 
4 38 122 123 39 
4 122 215 216 123 
8 215 339 338 340 341 342 343 216 
4 340 428 429 341 
8 428 404 403 430 431 348 347 429 
4 430 432 435 431 
8 432 410 409 433 434 354 353 435 
4 433 436 439 434 
8 436 416 415 437 438 360 359 439 
4 437 368 371 438 
8 368 369 370 248 247 366 365 371 
4 35 120 121 38 
4 120 213 214 121 
8 213 211 210 336 337 338 339 214 
4 336 400 405 337 
8 400 293 292 401 402 403 404 405 
4 401 406 411 402 
8 406 299 298 407 408 409 410 411 
4 407 412 417 408 
8 412 305 304 413 414 415 416 417 
4 413 398 399 414 
8 398 309 308 288 287 370 369 399 
4 440 441 442 443 
4 441 446 447 442 
4 446 450 451 447 
4 450 448 449 451 
4 448 444 445 449 
4 444 440 443 445 
4 452 453 454 455 
4 453 458 459 454 
4 458 462 463 459 
4 462 460 461 463 
4 460 456 457 461 
4 456 452 455 457 
4 464 465 466 467 
4 465 470 471 466 
4 470 474 475 471 
4 474 472 473 475 
4 472 468 469 473 
4 468 464 467 469 
4 476 477 478 479 
4 477 482 483 478 
4 482 486 487 483 
4 486 484 485 487 
4 484 480 481 485 
4 480 476 479 481 
4 488 489 490 491 
4 489 494 495 490 
4 494 498 499 495 
4 498 496 497 499 
4 496 492 493 497 
4 492 488 491 493 
4 500 501 502 503 
4 501 506 507 502 
4 506 510 511 507 
4 510 508 509 511 
4 508 504 505 509 
4 504 500 503 505 
4 512 513 514 515 
4 513 518 519 514 
4 518 522 523 519 
4 522 520 521 523 
4 520 516 517 521 
4 516 512 515 517 
4 524 525 526 527 
4 525 530 531 526 
4 530 534 535 531 
4 534 532 533 535 
4 532 528 529 533 
4 528 524 527 529 
4 536 537 538 539 
4 537 542 543 538 
4 542 546 547 543 
4 546 544 545 547 
4 544 540 541 545 
4 540 536 539 541 
4 548 549 550 551 
4 549 554 555 550 
4 554 558 559 555 
4 558 556 557 559 
4 556 552 553 557 
4 552 548 551 553 
4 560 561 562 563 
4 561 566 567 562 
4 566 570 571 567 
4 570 568 569 571 
4 568 564 565 569 
4 564 560 563 565 
4 572 573 574 575 
4 573 578 579 574 
4 578 582 583 579 
4 582 580 581 583 
4 580 576 577 581 
4 576 572 575 577 
4 584 585 586 587 
4 585 590 591 586 
4 590 594 595 591 
4 594 592 593 595 
4 592 588 589 593 
4 588 584 587 589 
4 596 597 598 599 
4 597 602 603 598 
4 602 606 607 603 
4 606 604 605 607 
4 604 600 601 605 
4 600 596 599 601 
4 608 609 610 611 
4 609 614 615 610 
4 614 618 619 615 
4 618 616 617 619 
4 616 612 613 617 
4 612 608 611 613 
4 620 621 622 623 
4 621 626 627 622 
4 626 630 631 627 
4 630 628 629 631 
4 628 624 625 629 
4 624 620 623 625 
4 632 633 634 635 
4 633 638 639 634 
4 638 642 643 639 
4 642 640 641 643 
4 640 636 637 641 
4 636 632 635 637 
4 644 645 646 647 
4 645 650 651 646 
4 650 654 655 651 
4 654 652 653 655 
4 652 648 649 653 
4 648 644 647 649 
4 656 657 658 659 
4 657 662 663 658 
4 662 666 667 663 
4 666 664 665 667 
4 664 660 661 665 
4 660 656 659 661 
4 668 669 670 671 
4 669 674 675 670 
4 674 678 679 675 
4 678 676 677 679 
4 676 672 673 677 
4 672 668 671 673 
4 680 681 682 683 
4 681 686 687 682 
4 686 690 691 687 
4 690 688 689 691 
4 688 684 685 689 
4 684 680 683 685 
4 692 693 694 695 
4 693 698 699 694 
4 698 702 703 699 
4 702 700 701 703 
4 700 696 697 701 
4 696 692 695 697 
4 704 705 706 707 
4 705 710 711 706 
4 710 714 715 711 
4 714 712 713 715 
4 712 708 709 713 
4 708 704 707 709 
4 716 717 718 719 
4 717 722 723 718 
4 722 726 727 723 
4 726 724 725 727 
4 724 720 721 725 
4 720 716 719 721 
4 728 729 730 731 
4 729 734 735 730 
4 734 738 739 735 
4 738 736 737 739 
4 736 732 733 737 
4 732 728 731 733 
4 740 741 742 743 
4 741 746 747 742 
4 746 750 751 747 
4 750 748 749 751 
4 748 744 745 749 
4 744 740 743 745 
4 752 753 754 755 
4 753 758 759 754 
4 758 762 763 759 
4 762 760 761 763 
4 760 756 757 761 
4 756 752 755 757 
4 764 765 766 767 
4 765 770 771 766 
4 770 774 775 771 
4 774 772 773 775 
4 772 768 769 773 
4 768 764 767 769 
4 776 777 778 779 
4 777 782 783 778 
4 782 786 787 783 
4 786 784 785 787 
4 784 780 781 785 
4 780 776 779 781 
4 788 789 790 791 
4 789 794 795 790 
4 794 798 799 795 
4 798 796 797 799 
4 796 792 793 797 
4 792 788 791 793 
4 800 801 802 803 
4 801 806 807 802 
4 806 810 811 807 
4 810 808 809 811 
4 808 804 805 809 
4 804 800 803 805 
4 812 813 814 815 
4 813 818 819 814 
4 818 822 823 819 
4 822 820 821 823 
4 820 816 817 821 
4 816 812 815 817 
4 824 825 826 827 
4 825 830 831 826 
4 830 834 835 831 
4 834 832 833 835 
4 832 828 829 833 
4 828 824 827 829 
4 836 837 838 839 
4 837 842 843 838 
4 842 846 847 843 
4 846 844 845 847 
4 844 840 841 845 
4 840 836 839 841 
4 848 849 850 851 
4 849 854 855 850 
4 854 858 859 855 
4 858 856 857 859 
4 856 852 853 857 
4 852 848 851 853 
4 860 861 862 863 
4 861 866 867 862 
4 866 870 871 867 
4 870 868 869 871 
4 868 864 865 869 
4 864 860 863 865 

CELL_DATA 431
FIELD FieldData 2
OrigCellIdsA 1 431 int
0 1 4 5 2 2 2 2 2 
2 2 2 2 2 2 2 2 2 
2 2 2 2 2 2 2 2 2 
2 2 2 2 2 2 2 2 2 
2 2 2 2 2 2 2 2 2 
2 2 2 2 2 2 2 2 2 
2 2 2 2 2 2 2 2 2 
2 2 2 2 2 2 2 2 2 
2 2 2 2 2 2 2 2 2 
2 2 2 2 2 2 2 2 2 
2 2 2 2 2 2 2 2 2 
2 2 2 2 2 2 2 2 2 
2 3 3 3 3 3 3 3 3 
3 3 3 3 3 3 3 3 3 
3 3 3 3 3 3 3 3 3 
3 3 3 3 3 3 3 3 3 
3 3 3 3 3 3 3 3 3 
3 3 3 3 3 3 3 3 3 
3 3 3 3 3 3 3 3 3 
3 3 3 3 3 3 3 3 3 
3 3 3 3 3 3 3 3 3 
3 3 3 3 3 3 3 3 3 
3 3 3 3 3 3 3 3 3 
3 3 3 3 3 3 3 3 -1 
-1 -1 -1 -1 -1 -1 -1 -1 -1 
-1 -1 -1 -1 -1 -1 -1 -1 -1 
-1 -1 -1 -1 -1 -1 -1 -1 -1 
-1 -1 -1 -1 -1 -1 -1 -1 -1 
-1 -1 -1 -1 -1 -1 -1 -1 -1 
-1 -1 -1 -1 -1 -1 -1 -1 -1 
-1 -1 -1 -1 -1 -1 -1 -1 -1 
-1 -1 -1 -1 -1 -1 -1 -1 -1 
-1 -1 -1 -1 -1 -1 -1 -1 -1 
-1 -1 -1 -1 -1 -1 -1 -1 -1 
-1 -1 -1 -1 -1 -1 -1 -1 -1 
-1 -1 -1 -1 -1 -1 -1 -1 -1 
-1 -1 -1 -1 -1 -1 -1 -1 -1 
-1 -1 -1 -1 -1 -1 -1 -1 -1 
-1 -1 -1 -1 -1 -1 -1 -1 -1 
-1 -1 -1 -1 -1 -1 -1 -1 -1 
-1 -1 -1 -1 -1 -1 -1 -1 -1 
-1 -1 -1 -1 -1 -1 -1 -1 -1 
-1 -1 -1 -1 -1 -1 -1 -1 -1 
-1 -1 -1 -1 -1 -1 -1 -1 -1 
-1 -1 -1 -1 -1 -1 -1 -1 -1 
-1 -1 -1 -1 -1 -1 -1 -1 -1 
-1 -1 -1 -1 -1 -1 -1 -1 -1 
-1 -1 -1 -1 -1 -1 -1 -1 
OrigCellIdsB 1 431 int
-1 -1 -1 -1 -1 -1 -1 -1 -1 
-1 -1 -1 -1 -1 -1 -1 -1 -1 
-1 -1 -1 -1 -1 -1 -1 -1 -1 
-1 -1 -1 -1 -1 -1 -1 -1 -1 
-1 -1 -1 -1 -1 -1 -1 -1 -1 
-1 -1 -1 -1 -1 -1 -1 -1 -1 
-1 -1 -1 -1 -1 -1 -1 -1 -1 
-1 -1 -1 -1 -1 -1 -1 -1 -1 
-1 -1 -1 -1 -1 -1 -1 -1 -1 
-1 -1 -1 -1 -1 -1 -1 -1 -1 
-1 -1 -1 -1 -1 -1 -1 -1 -1 
-1 -1 -1 -1 -1 -1 -1 -1 -1 
-1 -1 -1 -1 -1 -1 -1 -1 -1 
-1 -1 -1 -1 -1 -1 -1 -1 -1 
-1 -1 -1 -1 -1 -1 -1 -1 -1 
-1 -1 -1 -1 -1 -1 -1 -1 -1 
-1 -1 -1 -1 -1 -1 -1 -1 -1 
-1 -1 -1 -1 -1 -1 -1 -1 -1 
-1 -1 -1 -1 -1 -1 -1 -1 -1 
-1 -1 -1 -1 -1 -1 -1 -1 -1 
-1 -1 -1 -1 -1 -1 -1 -1 -1 
-1 -1 -1 -1 -1 -1 -1 -1 -1 
-1 -1 -1 -1 -1 -1 -1 -1 -1 
-1 -1 -1 -1 -1 -1 -1 -1 0 
1 2 3 4 5 8 9 10 11 
12 13 16 17 18 19 20 21 24 
25 26 27 28 29 32 33 34 35 
36 37 40 41 42 43 44 45 48 
49 50 51 52 53 56 57 58 59 
60 61 64 65 66 67 68 69 72 
73 74 75 76 77 80 81 82 83 
84 85 88 89 90 91 92 93 96 
97 98 99 100 101 104 105 106 107 
108 109 112 113 114 115 116 117 120 
121 122 123 124 125 128 129 130 131 
132 133 136 137 138 139 140 141 144 
145 146 147 148 149 152 153 154 155 
156 157 160 161 162 163 164 165 168 
169 170 171 172 173 176 177 178 179 
180 181 184 185 186 187 188 189 192 
193 194 195 196 197 200 201 202 203 
204 205 208 209 210 211 212 213 216 
217 218 219 220 221 224 225 226 227 
228 229 232 233 234 235 236 237 240 
241 242 243 244 245 248 249 250 251 
252 253 256 257 258 259 260 261 264 
265 266 267 268 269 272 273 274 275 
276 277 280 281 282 283 284 285 
POINT_DATA 872
SCALARS RegionId vtkIdType
LOOKUP_TABLE default
0 0 0 0 0 0 0 0 0 
0 0 0 0 0 0 0 0 0 
0 0 0 0 0 0 0 0 0 
0 0 0 0 0 0 0 0 0 
0 0 0 0 0 0 0 0 0 
0 0 0 0 0 0 0 0 0 
0 0 0 0 0 0 0 0 0 
0 0 0 0 0 0 0 0 0 
0 0 0 0 0 0 0 0 0 
0 0 0 0 0 0 0 0 0 
0 0 0 0 0 0 0 0 0 
0 0 0 0 0 0 0 0 0 
0 0 0 0 0 0 0 0 0 
0 0 0 0 0 0 0 0 0 
0 0 0 0 0 0 0 0 0 
0 0 0 0 0 0 0 0 0 
0 0 0 0 0 0 0 0 0 
0 0 0 0 0 0 0 0 0 
0 0 0 0 0 0 0 0 0 
0 0 0 0 0 0 0 0 0 
0 0 0 0 0 0 0 0 0 
0 0 0 0 0 0 0 0 0 
0 0 0 0 0 0 0 0 0 
0 0 0 0 0 0 0 0 0 
0 0 0 0 0 0 0 0 0 
0 0 0 0 0 0 0 0 0 
0 0 0 0 0 0 0 0 0 
0 0 0 0 0 0 0 0 0 
0 0 0 0 0 0 0 0 0 
0 0 0 0 0 0 0 0 0 
0 0 0 0 0 0 0 0 0 
0 0 0 0 0 0 0 0 0 
0 0 0 0 0 0 0 0 0 
0 0 0 0 0 0 0 0 0 
0 0 0 0 0 0 0 0 0 
0 0 0 0 0 0 0 0 0 
0 0 0 0 0 0 0 0 0 
0 0 0 0 0 0 0 0 0 
0 0 0 0 0 0 0 0 0 
0 0 0 0 0 0 0 0 0 
0 0 0 0 0 0 0 0 0 
0 0 0 0 0 0 0 0 0 
0 0 0 0 0 0 0 0 0 
0 0 0 0 0 0 0 0 0 
0 0 0 0 0 0 0 0 0 
0 0 0 0 0 0 0 0 0 
0 0 0 0 0 0 0 0 0 
0 0 0 0 0 0 0 0 0 
0 0 0 0 0 0 0 0 1 
1 1 1 1 1 1 1 1 1 
1 1 2 2 2 2 2 2 2 
2 2 2 2 2 3 3 3 3 
3 3 3 3 3 3 3 3 4 
4 4 4 4 4 4 4 4 4 
4 4 5 5 5 5 5 5 5 
5 5 5 5 5 6 6 6 6 
6 6 6 6 6 6 6 6 7 
7 7 7 7 7 7 7 7 7 
7 7 8 8 8 8 8 8 8 
8 8 8 8 8 9 9 9 9 
9 9 9 9 9 9 9 9 10 
10 10 10 10 10 10 10 10 10 
10 10 11 11 11 11 11 11 11 
11 11 11 11 11 12 12 12 12 
12 12 12 12 12 12 12 12 13 
13 13 13 13 13 13 13 13 13 
13 13 14 14 14 14 14 14 14 
14 14 14 14 14 15 15 15 15 
15 15 15 15 15 15 15 15 16 
16 16 16 16 16 16 16 16 16 
16 16 17 17 17 17 17 17 17 
17 17 17 17 17 18 18 18 18 
18 18 18 18 18 18 18 18 19 
19 19 19 19 19 19 19 19 19 
19 19 20 20 20 20 20 20 20 
20 20 20 20 20 21 21 21 21 
21 21 21 21 21 21 21 21 22 
22 22 22 22 22 22 22 22 22 
22 22 23 23 23 23 23 23 23 
23 23 23 23 23 24 24 24 24 
24 24 24 24 24 24 24 24 25 
25 25 25 25 25 25 25 25 25 
25 25 26 26 26 26 26 26 26 
26 26 26 26 26 27 27 27 27 
27 27 27 27 27 27 27 27 28 
28 28 28 28 28 28 28 28 28 
28 28 29 29 29 29 29 29 29 
29 29 29 29 29 30 30 30 30 
30 30 30 30 30 30 30 30 31 
31 31 31 31 31 31 31 31 31 
31 31 32 32 32 32 32 32 32 
32 32 32 32 32 33 33 33 33 
33 33 33 33 33 33 33 33 34 
34 34 34 34 34 34 34 34 34 
34 34 35 35 35 35 35 35 35 
35 35 35 35 35 36 36 36 36 
36 36 36 36 36 36 36 36 
