# vtk DataFile Version 4.0
vtk output
ASCII
DATASET POLYDATA
POINTS 264 double
-0.75 -0.5 -0.75 -0.75 -0.5 5.25 -0.75 0.5 5.25 
-0.75 0.5 -0.75 5.25 0.5 -0.75 5.25 -0.5 -0.75 
1.5 -0.5 -0.5 3.06162e-17 -0.5 -0.5 -0.5 -0.5 -6.12323e-17 
-0.5 -0.5 1.5 -0.5 -0.5 3 -0.5 -0.5 4.5 
5.25 -0.5 5.25 5.25 0.5 5.25 -9.18485e-17 -0.5 5 
1.5 -0.5 5 1.5 0.5 5 -9.18485e-17 0.5 5 
-0.5 0.5 4.5 -0.5 0.5 3 -0.5 0.5 1.5 
-0.5 0.5 -6.12323e-17 1.5 0.5 -0.5 3.06162e-17 0.5 -0.5 
3 0.5 -0.5 4.5 0.5 -0.5 5 0.5 0 
5 0.5 1.5 5 0.5 3 5 0.5 4.5 
4.5 -0.5 -0.5 3 -0.5 -0.5 5 -0.5 0 
5 -0.5 1.5 5 -0.5 3 5 -0.5 4.5 
2 -0.5 0 2.5 -0.5 -6.12323e-17 1 -0.5 -6.12323e-17 
0.5 -0.5 0 -9.18485e-17 -0.5 0.5 3.06162e-17 -0.5 1 
-9.18485e-17 -0.5 2 3.06162e-17 -0.5 2.5 -9.18485e-17 -0.5 3.5 
3.06162e-17 -0.5 4 4.5 -0.5 5 3 -0.5 5 
4.5 0.5 5 3 0.5 5 0.5 -0.5 4.5 
1 -0.5 4.5 2 -0.5 4.5 2.5 -0.5 4.5 
1 0.5 4.5 0.5 0.5 4.5 2.5 0.5 4.5 
2 0.5 4.5 3.06162e-17 0.5 4 -9.18485e-17 0.5 3.5 
3.06162e-17 0.5 2.5 -9.18485e-17 0.5 2 3.06162e-17 0.5 1 
-9.18485e-17 0.5 0.5 1 0.5 -6.12323e-17 0.5 0.5 0 
2 0.5 0 2.5 0.5 -6.12323e-17 3.5 0.5 0 
4 0.5 -6.12323e-17 4.5 0.5 0.5 4.5 0.5 1 
4.5 0.5 2 4.5 0.5 2.5 4.5 0.5 3.5 
4.5 0.5 4 4 -0.5 -6.12323e-17 3.5 -0.5 0 
4.5 -0.5 1 4.5 -0.5 0.5 4.5 -0.5 2.5 
4.5 -0.5 2 4.5 -0.5 4 4.5 -0.5 3.5 
3 -0.5 0.5 3 -0.5 1 2.5 -0.5 1.5 
2 -0.5 1.5 1.5 -0.5 1 1.5 -0.5 0.5 
1 -0.5 1.5 0.5 -0.5 1.5 1.5 -0.5 2 
1.5 -0.5 2.5 1 -0.5 3 0.5 -0.5 3 
1.5 -0.5 3.5 1.5 -0.5 4 3.5 -0.5 4.5 
4 -0.5 4.5 4 0.5 4.5 3.5 0.5 4.5 
2.5 -0.5 3 3 -0.5 3.5 3 -0.5 4 
2 -0.5 3 0.5 0.5 3 1.5 0.5 4 
1.5 0.5 3.5 1 0.5 3 3 0.5 4 
3 0.5 3.5 2.5 0.5 3 2 0.5 3 
0.5 0.5 1.5 1.5 0.5 2.5 1.5 0.5 2 
1 0.5 1.5 1.5 0.5 1 1.5 0.5 0.5 
2 0.5 1.5 2.5 0.5 1.5 3 0.5 1 
3 0.5 0.5 3.5 0.5 1.5 4 0.5 1.5 
3 0.5 2 3 0.5 2.5 3.5 0.5 3 
4 0.5 3 4 -0.5 1.5 3.5 -0.5 1.5 
4 -0.5 3 3.5 -0.5 3 3 -0.5 2.5 
3 -0.5 2 0.5 0.5 0 3.06162e-17 0.5 -0.5 
3.06162e-17 -0.5 -0.5 0.5 -0.5 0 -9.18485e-17 0.5 0.5 
-9.18485e-17 -0.5 0.5 -0.5 0.5 -6.12323e-17 -0.5 -0.5 -6.12323e-17 
0.5 0.5 1.5 3.06162e-17 0.5 1 3.06162e-17 -0.5 1 
0.5 -0.5 1.5 -9.18485e-17 0.5 2 -9.18485e-17 -0.5 2 
-0.5 0.5 1.5 -0.5 -0.5 1.5 0.5 0.5 3 
3.06162e-17 0.5 2.5 3.06162e-17 -0.5 2.5 0.5 -0.5 3 
-9.18485e-17 0.5 3.5 -9.18485e-17 -0.5 3.5 -0.5 0.5 3 
-0.5 -0.5 3 0.5 0.5 4.5 3.06162e-17 0.5 4 
3.06162e-17 -0.5 4 0.5 -0.5 4.5 -9.18485e-17 0.5 5 
-9.18485e-17 -0.5 5 -0.5 0.5 4.5 -0.5 -0.5 4.5 
2 0.5 0 1.5 0.5 -0.5 1.5 -0.5 -0.5 
2 -0.5 0 1.5 0.5 0.5 1.5 -0.5 0.5 
1 0.5 -6.12323e-17 1 -0.5 -6.12323e-17 2 0.5 1.5 
1.5 0.5 1 1.5 -0.5 1 2 -0.5 1.5 
1.5 0.5 2 1.5 -0.5 2 1 0.5 1.5 
1 -0.5 1.5 2 0.5 3 1.5 0.5 2.5 
1.5 -0.5 2.5 2 -0.5 3 1.5 0.5 3.5 
1.5 -0.5 3.5 1 0.5 3 1 -0.5 3 
2 0.5 4.5 1.5 0.5 4 1.5 -0.5 4 
2 -0.5 4.5 1.5 0.5 5 1.5 -0.5 5 
1 0.5 4.5 1 -0.5 4.5 3.5 0.5 0 
3 0.5 -0.5 3 -0.5 -0.5 3.5 -0.5 0 
3 0.5 0.5 3 -0.5 0.5 2.5 0.5 -6.12323e-17 
2.5 -0.5 -6.12323e-17 3.5 0.5 1.5 3 0.5 1 
3 -0.5 1 3.5 -0.5 1.5 3 0.5 2 
3 -0.5 2 2.5 0.5 1.5 2.5 -0.5 1.5 
3.5 0.5 3 3 0.5 2.5 3 -0.5 2.5 
3.5 -0.5 3 3 0.5 3.5 3 -0.5 3.5 
2.5 0.5 3 2.5 -0.5 3 3.5 0.5 4.5 
3 0.5 4 3 -0.5 4 3.5 -0.5 4.5 
3 0.5 5 3 -0.5 5 2.5 0.5 4.5 
2.5 -0.5 4.5 5 0.5 0 4.5 0.5 -0.5 
4.5 -0.5 -0.5 5 -0.5 0 4.5 0.5 0.5 
4.5 -0.5 0.5 4 0.5 -6.12323e-17 4 -0.5 -6.12323e-17 
5 0.5 1.5 4.5 0.5 1 4.5 -0.5 1 
5 -0.5 1.5 4.5 0.5 2 4.5 -0.5 2 
4 0.5 1.5 4 -0.5 1.5 5 0.5 3 
4.5 0.5 2.5 4.5 -0.5 2.5 5 -0.5 3 
4.5 0.5 3.5 4.5 -0.5 3.5 4 0.5 3 
4 -0.5 3 5 0.5 4.5 4.5 0.5 4 
4.5 -0.5 4 5 -0.5 4.5 4.5 0.5 5 
4.5 -0.5 5 4 0.5 4.5 4 -0.5 4.5 

POLYGONS 141 755
4 0 1 2 3 
4 5 4 13 12 
4 0 3 4 5 
4 1 12 13 2 
8 84 85 86 87 88 89 36 37 
4 36 6 31 37 
4 6 5 30 31 
4 30 76 77 31 
8 76 79 78 130 131 85 84 77 
8 130 81 80 132 133 134 135 131 
8 132 83 82 99 98 104 103 133 
3 5 32 30 
3 5 33 32 
4 33 78 79 32 
3 5 34 33 
4 34 80 81 33 
4 5 12 35 34 
4 35 82 83 34 
3 12 46 35 
3 12 47 46 
4 47 98 99 46 
3 12 15 47 
4 15 52 53 47 
4 12 1 14 15 
4 14 50 51 15 
4 6 7 0 5 
3 7 8 0 
3 8 9 0 
3 9 10 0 
4 10 11 1 0 
3 11 14 1 
4 10 44 45 11 
4 9 42 43 10 
4 8 40 41 9 
4 6 38 39 7 
8 38 89 88 90 91 41 40 39 
8 90 92 93 94 95 43 42 91 
8 94 96 97 51 50 45 44 95 
8 92 87 86 135 134 102 105 93 
8 102 103 104 53 52 97 96 105 
8 118 119 64 65 63 62 114 117 
8 114 61 60 106 109 115 116 117 
8 115 113 112 127 126 121 120 116 
8 106 59 58 55 54 107 108 109 
8 107 57 56 110 111 112 113 108 
4 64 22 23 65 
3 22 3 23 
3 3 21 23 
3 22 24 3 
4 24 25 4 3 
3 25 26 4 
3 26 27 4 
3 27 28 4 
4 28 29 13 4 
3 29 48 13 
3 48 49 13 
3 49 16 13 
4 16 17 2 13 
3 17 18 2 
3 18 19 2 
3 19 20 2 
4 20 21 3 2 
4 20 62 63 21 
4 19 60 61 20 
4 18 58 59 19 
4 16 54 55 17 
4 49 56 57 16 
4 48 100 101 49 
4 28 74 75 29 
4 27 72 73 28 
4 26 70 71 27 
4 24 68 69 25 
8 68 123 122 124 125 71 70 69 
8 124 126 127 128 129 73 72 125 
8 128 111 110 101 100 75 74 129 
4 22 66 67 24 
8 66 119 118 120 121 122 123 67 
4 136 137 138 139 
4 137 142 143 138 
4 142 140 141 143 
4 140 136 139 141 
4 144 145 146 147 
4 145 150 151 146 
4 150 148 149 151 
4 148 144 147 149 
4 152 153 154 155 
4 153 158 159 154 
4 158 156 157 159 
4 156 152 155 157 
4 160 161 162 163 
4 161 166 167 162 
4 166 164 165 167 
4 164 160 163 165 
4 168 169 170 171 
4 169 174 175 170 
4 174 172 173 175 
4 172 168 171 173 
4 176 177 178 179 
4 177 182 183 178 
4 182 180 181 183 
4 180 176 179 181 
4 184 185 186 187 
4 185 190 191 186 
4 190 188 189 191 
4 188 184 187 189 
4 192 193 194 195 
4 193 198 199 194 
4 198 196 197 199 
4 196 192 195 197 
4 200 201 202 203 
4 201 206 207 202 
4 206 204 205 207 
4 204 200 203 205 
4 208 209 210 211 
4 209 214 215 210 
4 214 212 213 215 
4 212 208 211 213 
4 216 217 218 219 
4 217 222 223 218 
4 222 220 221 223 
4 220 216 219 221 
4 224 225 226 227 
4 225 230 231 226 
4 230 228 229 231 
4 228 224 227 229 
4 232 233 234 235 
4 233 238 239 234 
4 238 236 237 239 
4 236 232 235 237 
4 240 241 242 243 
4 241 246 247 242 
4 246 244 245 247 
4 244 240 243 245 
4 248 249 250 251 
4 249 254 255 250 
4 254 252 253 255 
4 252 248 251 253 
4 256 257 258 259 
4 257 262 263 258 
4 262 260 261 263 
4 260 256 259 261 

CELL_DATA 141
FIELD FieldData 2
OrigCellIdsA 1 141 int
0 1 4 5 2 2 2 2 2 
2 2 2 2 2 2 2 2 2 
2 2 2 2 2 2 2 2 2 
2 2 2 2 2 2 2 2 2 
2 2 2 2 3 3 3 3 3 
3 3 3 3 3 3 3 3 3 
3 3 3 3 3 3 3 3 3 
3 3 3 3 3 3 3 3 3 
3 3 3 3 3 -1 -1 -1 -1 
-1 -1 -1 -1 -1 -1 -1 -1 -1 
-1 -1 -1 -1 -1 -1 -1 -1 -1 
-1 -1 -1 -1 -1 -1 -1 -1 -1 
-1 -1 -1 -1 -1 -1 -1 -1 -1 
-1 -1 -1 -1 -1 -1 -1 -1 -1 
-1 -1 -1 -1 -1 -1 -1 -1 -1 
-1 -1 -1 -1 -1 -1 
OrigCellIdsB 1 141 int
-1 -1 -1 -1 -1 -1 -1 -1 -1 
-1 -1 -1 -1 -1 -1 -1 -1 -1 
-1 -1 -1 -1 -1 -1 -1 -1 -1 
-1 -1 -1 -1 -1 -1 -1 -1 -1 
-1 -1 -1 -1 -1 -1 -1 -1 -1 
-1 -1 -1 -1 -1 -1 -1 -1 -1 
-1 -1 -1 -1 -1 -1 -1 -1 -1 
-1 -1 -1 -1 -1 -1 -1 -1 -1 
-1 -1 -1 -1 -1 0 1 2 3 
6 7 8 9 12 13 14 15 18 
19 20 21 24 25 26 27 30 31 
32 33 36 37 38 39 42 43 44 
45 48 49 50 51 54 55 56 57 
60 61 62 63 66 67 68 69 72 
73 74 75 78 79 80 81 84 85 
86 87 90 91 92 93 
POINT_DATA 264
SCALARS RegionId vtkIdType
LOOKUP_TABLE default
0 0 0 0 0 0 0 0 0 
0 0 0 0 0 0 0 0 0 
0 0 0 0 0 0 0 0 0 
0 0 0 0 0 0 0 0 0 
0 0 0 0 0 0 0 0 0 
0 0 0 0 0 0 0 0 0 
0 0 0 0 0 0 0 0 0 
0 0 0 0 0 0 0 0 0 
0 0 0 0 0 0 0 0 0 
0 0 0 0 0 0 0 0 0 
0 0 0 0 0 0 0 0 0 
0 0 0 0 0 0 0 0 0 
0 0 0 0 0 0 0 0 0 
0 0 0 0 0 0 0 0 0 
0 0 0 0 0 0 0 0 0 
0 1 1 1 1 1 1 1 1 
2 2 2 2 2 2 2 2 3 
3 3 3 3 3 3 3 4 4 
4 4 4 4 4 4 5 5 5 
5 5 5 5 5 6 6 6 6 
6 6 6 6 7 7 7 7 7 
7 7 7 8 8 8 8 8 8 
8 8 9 9 9 9 9 9 9 
9 10 10 10 10 10 10 10 10 
11 11 11 11 11 11 11 11 12 
12 12 12 12 12 12 12 13 13 
13 13 13 13 13 13 14 14 14 
14 14 14 14 14 15 15 15 15 
15 15 15 15 16 16 16 16 16 
16 16 16 
