# vtk DataFile Version 4.0
vtk output
ASCII
DATASET POLYDATA
POINTS 584 double
-0.75 -0.5 -0.75 -0.75 -0.5 8.25 -0.75 0.5 8.25 
-0.75 0.5 -0.75 8.25 0.5 -0.75 8.25 -0.5 -0.75 
1.5 -0.5 -0.5 3.06162e-17 -0.5 -0.5 -0.5 -0.5 -6.12323e-17 
-0.5 -0.5 1.5 -0.5 -0.5 3 -0.5 -0.5 4.5 
-0.5 -0.5 6 -0.5 -0.5 7.5 8.25 -0.5 8.25 
8.25 0.5 8.25 -9.18485e-17 -0.5 8 1.5 -0.5 8 
1.5 0.5 8 -9.18485e-17 0.5 8 -0.5 0.5 7.5 
-0.5 0.5 6 -0.5 0.5 4.5 -0.5 0.5 3 
-0.5 0.5 1.5 -0.5 0.5 -6.12323e-17 4.5 0.5 -0.5 
1.5 0.5 -0.5 3 0.5 -0.5 3.06162e-17 0.5 -0.5 
6 0.5 -0.5 7.5 0.5 -0.5 8 0.5 0 
8 0.5 1.5 8 0.5 3 8 0.5 4.5 
8 0.5 6 8 0.5 7.5 4.5 -0.5 -0.5 
3 -0.5 -0.5 6 -0.5 -0.5 7.5 -0.5 -0.5 
8 -0.5 0 8 -0.5 1.5 8 -0.5 3 
8 -0.5 4.5 8 -0.5 6 8 -0.5 7.5 
2.5 -0.5 -6.12323e-17 2 -0.5 0 1 -0.5 -6.12323e-17 
0.5 -0.5 0 -9.18485e-17 -0.5 0.5 3.06162e-17 -0.5 1 
-9.18485e-17 -0.5 2 3.06162e-17 -0.5 2.5 -9.18485e-17 -0.5 3.5 
3.06162e-17 -0.5 4 -9.18485e-17 -0.5 5 3.06162e-17 -0.5 5.5 
-9.18485e-17 -0.5 6.5 3.06162e-17 -0.5 7 7.5 -0.5 8 
6 -0.5 8 4.5 -0.5 8 3 -0.5 8 
7.5 0.5 8 6 0.5 8 4.5 0.5 8 
3 0.5 8 0.5 -0.5 7.5 1 -0.5 7.5 
2 -0.5 7.5 2.5 -0.5 7.5 1 0.5 7.5 
0.5 0.5 7.5 2.5 0.5 7.5 2 0.5 7.5 
3.06162e-17 0.5 7 -9.18485e-17 0.5 6.5 3.06162e-17 0.5 5.5 
-9.18485e-17 0.5 5 3.06162e-17 0.5 4 -9.18485e-17 0.5 3.5 
3.06162e-17 0.5 2.5 -9.18485e-17 0.5 2 3.06162e-17 0.5 1 
-9.18485e-17 0.5 0.5 3.5 0.5 0 4 0.5 -6.12323e-17 
5 0.5 0 5.5 0.5 -6.12323e-17 2 0.5 0 
2.5 0.5 -6.12323e-17 0.5 0.5 0 1 0.5 -6.12323e-17 
6.5 0.5 0 7 0.5 -6.12323e-17 7.5 0.5 0.5 
7.5 0.5 1 7.5 0.5 2 7.5 0.5 2.5 
7.5 0.5 3.5 7.5 0.5 4 7.5 0.5 5 
7.5 0.5 5.5 7.5 0.5 6.5 7.5 0.5 7 
4 -0.5 -6.12323e-17 3.5 -0.5 0 5.5 -0.5 -6.12323e-17 
5 -0.5 0 7 -0.5 -6.12323e-17 6.5 -0.5 0 
7.5 -0.5 1 7.5 -0.5 0.5 7.5 -0.5 2.5 
7.5 -0.5 2 7.5 -0.5 4 7.5 -0.5 3.5 
7.5 -0.5 5.5 7.5 -0.5 5 7.5 -0.5 7 
7.5 -0.5 6.5 1.5 -0.5 0.5 3 -0.5 0.5 
3 -0.5 1 2.5 -0.5 1.5 2 -0.5 1.5 
1.5 -0.5 1 1 -0.5 1.5 0.5 -0.5 1.5 
1.5 -0.5 2 1.5 -0.5 2.5 1 -0.5 3 
0.5 -0.5 3 1.5 -0.5 3.5 1.5 -0.5 4 
1 -0.5 4.5 0.5 -0.5 4.5 1.5 -0.5 5 
1.5 -0.5 5.5 1 -0.5 6 0.5 -0.5 6 
1.5 -0.5 6.5 1.5 -0.5 7 6.5 -0.5 7.5 
7 -0.5 7.5 5 -0.5 7.5 5.5 -0.5 7.5 
3.5 -0.5 7.5 4 -0.5 7.5 7 0.5 7.5 
6.5 0.5 7.5 5.5 0.5 7.5 5 0.5 7.5 
4 0.5 7.5 3.5 0.5 7.5 2 -0.5 6 
2.5 -0.5 6 3 -0.5 6.5 3 -0.5 7 
0.5 0.5 6 1.5 0.5 7 1.5 0.5 6.5 
1 0.5 6 3 0.5 7 3 0.5 6.5 
2.5 0.5 6 2 0.5 6 0.5 0.5 4.5 
1.5 0.5 5.5 1.5 0.5 5 1 0.5 4.5 
0.5 0.5 3 1.5 0.5 4 1.5 0.5 3.5 
1 0.5 3 0.5 0.5 1.5 1.5 0.5 2.5 
1.5 0.5 2 1 0.5 1.5 1.5 0.5 1 
1.5 0.5 0.5 4.5 0.5 0.5 3 0.5 0.5 
3 0.5 1 3.5 0.5 1.5 4 0.5 1.5 
4.5 0.5 1 5 0.5 1.5 5.5 0.5 1.5 
6 0.5 1 6 0.5 0.5 2 0.5 1.5 
2.5 0.5 1.5 6.5 0.5 1.5 7 0.5 1.5 
6 0.5 2 6 0.5 2.5 6.5 0.5 3 
7 0.5 3 6 0.5 3.5 6 0.5 4 
6.5 0.5 4.5 7 0.5 4.5 6 0.5 5 
6 0.5 5.5 6.5 0.5 6 7 0.5 6 
6 0.5 7 6 0.5 6.5 4.5 -0.5 1 
4 -0.5 1.5 3.5 -0.5 1.5 4.5 -0.5 0.5 
6 -0.5 0.5 6 -0.5 1 5.5 -0.5 1.5 
5 -0.5 1.5 7 -0.5 1.5 6.5 -0.5 1.5 
7 -0.5 3 6.5 -0.5 3 6 -0.5 2.5 
6 -0.5 2 7 -0.5 4.5 6.5 -0.5 4.5 
6 -0.5 4 6 -0.5 3.5 7 -0.5 6 
6.5 -0.5 6 6 -0.5 5.5 6 -0.5 5 
6 -0.5 6.5 6 -0.5 7 3 -0.5 2 
3 -0.5 2.5 2.5 -0.5 3 2 -0.5 3 
3 -0.5 3.5 3 -0.5 4 2.5 -0.5 4.5 
2 -0.5 4.5 3 -0.5 5 3 -0.5 5.5 
4.5 -0.5 6.5 5 -0.5 6 5.5 -0.5 6 
4.5 -0.5 7 3.5 -0.5 6 4 -0.5 6 
4.5 0.5 7 5.5 0.5 6 5 0.5 6 
4.5 0.5 6.5 4 0.5 6 3.5 0.5 6 
2 0.5 4.5 3 0.5 5.5 3 0.5 5 
2.5 0.5 4.5 2 0.5 3 3 0.5 4 
3 0.5 3.5 2.5 0.5 3 3 0.5 2.5 
3 0.5 2 3.5 0.5 3 4 0.5 3 
4.5 0.5 2.5 4.5 0.5 2 5 0.5 3 
5.5 0.5 3 4.5 0.5 3.5 4.5 0.5 4 
5 0.5 4.5 5.5 0.5 4.5 4.5 0.5 5 
4.5 0.5 5.5 4.5 -0.5 2 4.5 -0.5 2.5 
4 -0.5 3 3.5 -0.5 3 5.5 -0.5 3 
5 -0.5 3 5.5 -0.5 4.5 5 -0.5 4.5 
4.5 -0.5 4 4.5 -0.5 3.5 4.5 -0.5 5.5 
4.5 -0.5 5 4 -0.5 4.5 3.5 -0.5 4.5 
4 0.5 4.5 3.5 0.5 4.5 0.5 0.5 0 
3.06162e-17 0.5 -0.5 3.06162e-17 -0.5 -0.5 0.5 -0.5 0 
-9.18485e-17 0.5 0.5 -9.18485e-17 -0.5 0.5 -0.5 0.5 -6.12323e-17 
-0.5 -0.5 -6.12323e-17 0.5 0.5 1.5 3.06162e-17 0.5 1 
3.06162e-17 -0.5 1 0.5 -0.5 1.5 -9.18485e-17 0.5 2 
-9.18485e-17 -0.5 2 -0.5 0.5 1.5 -0.5 -0.5 1.5 
0.5 0.5 3 3.06162e-17 0.5 2.5 3.06162e-17 -0.5 2.5 
0.5 -0.5 3 -9.18485e-17 0.5 3.5 -9.18485e-17 -0.5 3.5 
-0.5 0.5 3 -0.5 -0.5 3 0.5 0.5 4.5 
3.06162e-17 0.5 4 3.06162e-17 -0.5 4 0.5 -0.5 4.5 
-9.18485e-17 0.5 5 -9.18485e-17 -0.5 5 -0.5 0.5 4.5 
-0.5 -0.5 4.5 0.5 0.5 6 3.06162e-17 0.5 5.5 
3.06162e-17 -0.5 5.5 0.5 -0.5 6 -9.18485e-17 0.5 6.5 
-9.18485e-17 -0.5 6.5 -0.5 0.5 6 -0.5 -0.5 6 
0.5 0.5 7.5 3.06162e-17 0.5 7 3.06162e-17 -0.5 7 
0.5 -0.5 7.5 -9.18485e-17 0.5 8 -9.18485e-17 -0.5 8 
-0.5 0.5 7.5 -0.5 -0.5 7.5 2 0.5 0 
1.5 0.5 -0.5 1.5 -0.5 -0.5 2 -0.5 0 
1.5 0.5 0.5 1.5 -0.5 0.5 1 0.5 -6.12323e-17 
1 -0.5 -6.12323e-17 2 0.5 1.5 1.5 0.5 1 
1.5 -0.5 1 2 -0.5 1.5 1.5 0.5 2 
1.5 -0.5 2 1 0.5 1.5 1 -0.5 1.5 
2 0.5 3 1.5 0.5 2.5 1.5 -0.5 2.5 
2 -0.5 3 1.5 0.5 3.5 1.5 -0.5 3.5 
1 0.5 3 1 -0.5 3 2 0.5 4.5 
1.5 0.5 4 1.5 -0.5 4 2 -0.5 4.5 
1.5 0.5 5 1.5 -0.5 5 1 0.5 4.5 
1 -0.5 4.5 2 0.5 6 1.5 0.5 5.5 
1.5 -0.5 5.5 2 -0.5 6 1.5 0.5 6.5 
1.5 -0.5 6.5 1 0.5 6 1 -0.5 6 
2 0.5 7.5 1.5 0.5 7 1.5 -0.5 7 
2 -0.5 7.5 1.5 0.5 8 1.5 -0.5 8 
1 0.5 7.5 1 -0.5 7.5 3.5 0.5 0 
3 0.5 -0.5 3 -0.5 -0.5 3.5 -0.5 0 
3 0.5 0.5 3 -0.5 0.5 2.5 0.5 -6.12323e-17 
2.5 -0.5 -6.12323e-17 3.5 0.5 1.5 3 0.5 1 
3 -0.5 1 3.5 -0.5 1.5 3 0.5 2 
3 -0.5 2 2.5 0.5 1.5 2.5 -0.5 1.5 
3.5 0.5 3 3 0.5 2.5 3 -0.5 2.5 
3.5 -0.5 3 3 0.5 3.5 3 -0.5 3.5 
2.5 0.5 3 2.5 -0.5 3 3.5 0.5 4.5 
3 0.5 4 3 -0.5 4 3.5 -0.5 4.5 
3 0.5 5 3 -0.5 5 2.5 0.5 4.5 
2.5 -0.5 4.5 3.5 0.5 6 3 0.5 5.5 
3 -0.5 5.5 3.5 -0.5 6 3 0.5 6.5 
3 -0.5 6.5 2.5 0.5 6 2.5 -0.5 6 
3.5 0.5 7.5 3 0.5 7 3 -0.5 7 
3.5 -0.5 7.5 3 0.5 8 3 -0.5 8 
2.5 0.5 7.5 2.5 -0.5 7.5 5 0.5 0 
4.5 0.5 -0.5 4.5 -0.5 -0.5 5 -0.5 0 
4.5 0.5 0.5 4.5 -0.5 0.5 4 0.5 -6.12323e-17 
4 -0.5 -6.12323e-17 5 0.5 1.5 4.5 0.5 1 
4.5 -0.5 1 5 -0.5 1.5 4.5 0.5 2 
4.5 -0.5 2 4 0.5 1.5 4 -0.5 1.5 
5 0.5 3 4.5 0.5 2.5 4.5 -0.5 2.5 
5 -0.5 3 4.5 0.5 3.5 4.5 -0.5 3.5 
4 0.5 3 4 -0.5 3 5 0.5 4.5 
4.5 0.5 4 4.5 -0.5 4 5 -0.5 4.5 
4.5 0.5 5 4.5 -0.5 5 4 0.5 4.5 
4 -0.5 4.5 5 0.5 6 4.5 0.5 5.5 
4.5 -0.5 5.5 5 -0.5 6 4.5 0.5 6.5 
4.5 -0.5 6.5 4 0.5 6 4 -0.5 6 
5 0.5 7.5 4.5 0.5 7 4.5 -0.5 7 
5 -0.5 7.5 4.5 0.5 8 4.5 -0.5 8 
4 0.5 7.5 4 -0.5 7.5 6.5 0.5 0 
6 0.5 -0.5 6 -0.5 -0.5 6.5 -0.5 0 
6 0.5 0.5 6 -0.5 0.5 5.5 0.5 -6.12323e-17 
5.5 -0.5 -6.12323e-17 6.5 0.5 1.5 6 0.5 1 
6 -0.5 1 6.5 -0.5 1.5 6 0.5 2 
6 -0.5 2 5.5 0.5 1.5 5.5 -0.5 1.5 
6.5 0.5 3 6 0.5 2.5 6 -0.5 2.5 
6.5 -0.5 3 6 0.5 3.5 6 -0.5 3.5 
5.5 0.5 3 5.5 -0.5 3 6.5 0.5 4.5 
6 0.5 4 6 -0.5 4 6.5 -0.5 4.5 
6 0.5 5 6 -0.5 5 5.5 0.5 4.5 
5.5 -0.5 4.5 6.5 0.5 6 6 0.5 5.5 
6 -0.5 5.5 6.5 -0.5 6 6 0.5 6.5 
6 -0.5 6.5 5.5 0.5 6 5.5 -0.5 6 
6.5 0.5 7.5 6 0.5 7 6 -0.5 7 
6.5 -0.5 7.5 6 0.5 8 6 -0.5 8 
5.5 0.5 7.5 5.5 -0.5 7.5 8 0.5 0 
7.5 0.5 -0.5 7.5 -0.5 -0.5 8 -0.5 0 
7.5 0.5 0.5 7.5 -0.5 0.5 7 0.5 -6.12323e-17 
7 -0.5 -6.12323e-17 8 0.5 1.5 7.5 0.5 1 
7.5 -0.5 1 8 -0.5 1.5 7.5 0.5 2 
7.5 -0.5 2 7 0.5 1.5 7 -0.5 1.5 
8 0.5 3 7.5 0.5 2.5 7.5 -0.5 2.5 
8 -0.5 3 7.5 0.5 3.5 7.5 -0.5 3.5 
7 0.5 3 7 -0.5 3 8 0.5 4.5 
7.5 0.5 4 7.5 -0.5 4 8 -0.5 4.5 
7.5 0.5 5 7.5 -0.5 5 7 0.5 4.5 
7 -0.5 4.5 8 0.5 6 7.5 0.5 5.5 
7.5 -0.5 5.5 8 -0.5 6 7.5 0.5 6.5 
7.5 -0.5 6.5 7 0.5 6 7 -0.5 6 
8 0.5 7.5 7.5 0.5 7 7.5 -0.5 7 
8 -0.5 7.5 7.5 0.5 8 7.5 -0.5 8 
7 0.5 7.5 7 -0.5 7.5 
POLYGONS 284 1584
4 0 1 2 3 
4 5 4 15 14 
4 0 3 4 5 
4 1 14 15 2 
4 48 49 6 39 
4 6 5 38 39 
4 38 108 109 39 
3 5 40 38 
4 40 110 111 38 
8 110 216 217 218 219 212 215 111 
8 212 213 214 126 125 109 108 215 
8 213 280 281 282 283 237 236 214 
8 282 289 288 292 293 241 240 283 
8 292 291 290 251 250 245 244 293 
8 218 225 224 284 285 281 280 219 
8 284 229 228 286 287 288 289 285 
8 286 233 232 248 247 290 291 287 
3 5 41 40 
4 41 112 113 40 
8 112 115 114 220 221 217 216 113 
8 220 117 116 222 223 224 225 221 
8 222 119 118 226 227 228 229 223 
8 226 121 120 230 231 232 233 227 
3 5 42 41 
3 5 43 42 
4 43 114 115 42 
3 5 44 43 
4 44 116 117 43 
3 5 45 44 
4 45 118 119 44 
3 5 46 45 
4 46 120 121 45 
4 5 14 47 46 
4 47 122 123 46 
3 14 62 47 
3 14 63 62 
4 63 146 147 62 
3 14 64 63 
4 64 148 149 63 
3 14 65 64 
4 65 150 151 64 
3 14 17 65 
4 17 72 73 65 
8 72 145 144 158 159 160 161 73 
8 160 250 251 246 249 151 150 161 
8 246 247 248 234 235 149 148 249 
8 234 231 230 123 122 147 146 235 
4 14 1 16 17 
4 16 70 71 17 
4 6 7 0 5 
3 7 8 0 
3 8 9 0 
3 9 10 0 
3 10 11 0 
3 11 12 0 
4 12 13 1 0 
3 13 16 1 
4 12 60 61 13 
4 11 58 59 12 
4 10 56 57 11 
4 9 54 55 10 
4 8 52 53 9 
4 6 50 51 7 
8 50 124 129 130 131 53 52 51 
8 130 132 133 134 135 55 54 131 
8 134 136 137 138 139 57 56 135 
8 138 140 141 142 143 59 58 139 
8 142 144 145 71 70 61 60 143 
8 124 49 48 125 126 127 128 129 
8 127 236 237 238 239 133 132 128 
8 238 240 241 242 243 137 136 239 
8 242 244 245 159 158 141 140 243 
4 88 89 26 28 
4 26 3 27 28 
4 27 92 93 28 
3 3 29 27 
4 29 94 95 27 
8 94 87 86 178 181 182 183 95 
8 182 194 195 186 185 93 92 183 
8 194 180 179 262 265 266 267 195 
8 262 176 175 258 261 263 264 265 
8 258 172 171 169 168 259 260 261 
8 259 257 256 279 278 294 295 260 
8 178 85 84 174 177 179 180 181 
8 174 83 82 170 173 175 176 177 
8 170 81 80 162 165 171 172 173 
8 162 79 78 75 74 163 164 165 
8 163 77 76 166 167 168 169 164 
8 166 157 156 252 255 256 257 167 
8 252 155 154 210 211 253 254 255 
8 210 153 152 107 106 209 208 211 
3 3 25 29 
3 26 30 3 
4 30 31 4 3 
3 31 32 4 
3 32 33 4 
3 33 34 4 
3 34 35 4 
3 35 36 4 
4 36 37 15 4 
3 37 66 15 
3 66 67 15 
3 67 68 15 
3 68 69 15 
3 69 18 15 
4 18 19 2 15 
3 19 20 2 
3 20 21 2 
3 21 22 2 
3 22 23 2 
3 23 24 2 
4 24 25 3 2 
4 24 86 87 25 
4 23 84 85 24 
4 22 82 83 23 
4 21 80 81 22 
4 20 78 79 21 
4 18 74 75 19 
4 69 76 77 18 
4 68 156 157 69 
4 67 154 155 68 
4 66 152 153 67 
4 36 106 107 37 
4 35 104 105 36 
4 34 102 103 35 
4 33 100 101 34 
4 32 98 99 33 
4 30 96 97 31 
8 96 193 192 196 197 99 98 97 
8 196 198 199 200 201 101 100 197 
8 200 202 203 204 205 103 102 201 
8 204 206 207 208 209 105 104 205 
4 26 90 91 30 
8 90 184 189 190 191 192 193 91 
8 190 271 270 272 273 199 198 191 
8 272 274 275 276 277 203 202 273 
8 276 278 279 254 253 207 206 277 
8 184 89 88 185 186 187 188 189 
8 187 267 266 268 269 270 271 188 
8 268 264 263 295 294 275 274 269 
4 296 297 298 299 
4 297 302 303 298 
4 302 300 301 303 
4 300 296 299 301 
4 304 305 306 307 
4 305 310 311 306 
4 310 308 309 311 
4 308 304 307 309 
4 312 313 314 315 
4 313 318 319 314 
4 318 316 317 319 
4 316 312 315 317 
4 320 321 322 323 
4 321 326 327 322 
4 326 324 325 327 
4 324 320 323 325 
4 328 329 330 331 
4 329 334 335 330 
4 334 332 333 335 
4 332 328 331 333 
4 336 337 338 339 
4 337 342 343 338 
4 342 340 341 343 
4 340 336 339 341 
4 344 345 346 347 
4 345 350 351 346 
4 350 348 349 351 
4 348 344 347 349 
4 352 353 354 355 
4 353 358 359 354 
4 358 356 357 359 
4 356 352 355 357 
4 360 361 362 363 
4 361 366 367 362 
4 366 364 365 367 
4 364 360 363 365 
4 368 369 370 371 
4 369 374 375 370 
4 374 372 373 375 
4 372 368 371 373 
4 376 377 378 379 
4 377 382 383 378 
4 382 380 381 383 
4 380 376 379 381 
4 384 385 386 387 
4 385 390 391 386 
4 390 388 389 391 
4 388 384 387 389 
4 392 393 394 395 
4 393 398 399 394 
4 398 396 397 399 
4 396 392 395 397 
4 400 401 402 403 
4 401 406 407 402 
4 406 404 405 407 
4 404 400 403 405 
4 408 409 410 411 
4 409 414 415 410 
4 414 412 413 415 
4 412 408 411 413 
4 416 417 418 419 
4 417 422 423 418 
4 422 420 421 423 
4 420 416 419 421 
4 424 425 426 427 
4 425 430 431 426 
4 430 428 429 431 
4 428 424 427 429 
4 432 433 434 435 
4 433 438 439 434 
4 438 436 437 439 
4 436 432 435 437 
4 440 441 442 443 
4 441 446 447 442 
4 446 444 445 447 
4 444 440 443 445 
4 448 449 450 451 
4 449 454 455 450 
4 454 452 453 455 
4 452 448 451 453 
4 456 457 458 459 
4 457 462 463 458 
4 462 460 461 463 
4 460 456 459 461 
4 464 465 466 467 
4 465 470 471 466 
4 470 468 469 471 
4 468 464 467 469 
4 472 473 474 475 
4 473 478 479 474 
4 478 476 477 479 
4 476 472 475 477 
4 480 481 482 483 
4 481 486 487 482 
4 486 484 485 487 
4 484 480 483 485 
4 488 489 490 491 
4 489 494 495 490 
4 494 492 493 495 
4 492 488 491 493 
4 496 497 498 499 
4 497 502 503 498 
4 502 500 501 503 
4 500 496 499 501 
4 504 505 506 507 
4 505 510 511 506 
4 510 508 509 511 
4 508 504 507 509 
4 512 513 514 515 
4 513 518 519 514 
4 518 516 517 519 
4 516 512 515 517 
4 520 521 522 523 
4 521 526 527 522 
4 526 524 525 527 
4 524 520 523 525 
4 528 529 530 531 
4 529 534 535 530 
4 534 532 533 535 
4 532 528 531 533 
4 536 537 538 539 
4 537 542 543 538 
4 542 540 541 543 
4 540 536 539 541 
4 544 545 546 547 
4 545 550 551 546 
4 550 548 549 551 
4 548 544 547 549 
4 552 553 554 555 
4 553 558 559 554 
4 558 556 557 559 
4 556 552 555 557 
4 560 561 562 563 
4 561 566 567 562 
4 566 564 565 567 
4 564 560 563 565 
4 568 569 570 571 
4 569 574 575 570 
4 574 572 573 575 
4 572 568 571 573 
4 576 577 578 579 
4 577 582 583 578 
4 582 580 581 583 
4 580 576 579 581 

CELL_DATA 284
FIELD FieldData 2
OrigCellIdsA 1 284 int
0 1 4 5 2 2 2 2 2 
2 2 2 2 2 2 2 2 2 
2 2 2 2 2 2 2 2 2 
2 2 2 2 2 2 2 2 2 
2 2 2 2 2 2 2 2 2 
2 2 2 2 2 2 2 2 2 
2 2 2 2 2 2 2 2 2 
2 2 2 2 2 2 2 2 2 
3 3 3 3 3 3 3 3 3 
3 3 3 3 3 3 3 3 3 
3 3 3 3 3 3 3 3 3 
3 3 3 3 3 3 3 3 3 
3 3 3 3 3 3 3 3 3 
3 3 3 3 3 3 3 3 3 
3 3 3 3 3 3 3 3 3 
3 3 3 3 3 -1 -1 -1 -1 
-1 -1 -1 -1 -1 -1 -1 -1 -1 
-1 -1 -1 -1 -1 -1 -1 -1 -1 
-1 -1 -1 -1 -1 -1 -1 -1 -1 
-1 -1 -1 -1 -1 -1 -1 -1 -1 
-1 -1 -1 -1 -1 -1 -1 -1 -1 
-1 -1 -1 -1 -1 -1 -1 -1 -1 
-1 -1 -1 -1 -1 -1 -1 -1 -1 
-1 -1 -1 -1 -1 -1 -1 -1 -1 
-1 -1 -1 -1 -1 -1 -1 -1 -1 
-1 -1 -1 -1 -1 -1 -1 -1 -1 
-1 -1 -1 -1 -1 -1 -1 -1 -1 
-1 -1 -1 -1 -1 -1 -1 -1 -1 
-1 -1 -1 -1 -1 -1 -1 -1 -1 
-1 -1 -1 -1 -1 -1 -1 -1 -1 
-1 -1 -1 -1 -1 -1 -1 -1 -1 
-1 -1 -1 -1 -1 
OrigCellIdsB 1 284 int
-1 -1 -1 -1 -1 -1 -1 -1 -1 
-1 -1 -1 -1 -1 -1 -1 -1 -1 
-1 -1 -1 -1 -1 -1 -1 -1 -1 
-1 -1 -1 -1 -1 -1 -1 -1 -1 
-1 -1 -1 -1 -1 -1 -1 -1 -1 
-1 -1 -1 -1 -1 -1 -1 -1 -1 
-1 -1 -1 -1 -1 -1 -1 -1 -1 
-1 -1 -1 -1 -1 -1 -1 -1 -1 
-1 -1 -1 -1 -1 -1 -1 -1 -1 
-1 -1 -1 -1 -1 -1 -1 -1 -1 
-1 -1 -1 -1 -1 -1 -1 -1 -1 
-1 -1 -1 -1 -1 -1 -1 -1 -1 
-1 -1 -1 -1 -1 -1 -1 -1 -1 
-1 -1 -1 -1 -1 -1 -1 -1 -1 
-1 -1 -1 -1 -1 -1 -1 -1 -1 
-1 -1 -1 -1 -1 0 1 2 3 
6 7 8 9 12 13 14 15 18 
19 20 21 24 25 26 27 30 31 
32 33 36 37 38 39 42 43 44 
45 48 49 50 51 54 55 56 57 
60 61 62 63 66 67 68 69 72 
73 74 75 78 79 80 81 84 85 
86 87 90 91 92 93 96 97 98 
99 102 103 104 105 108 109 110 111 
114 115 116 117 120 121 122 123 126 
127 128 129 132 133 134 135 138 139 
140 141 144 145 146 147 150 151 152 
153 156 157 158 159 162 163 164 165 
168 169 170 171 174 175 176 177 180 
181 182 183 186 187 188 189 192 193 
194 195 198 199 200 201 204 205 206 
207 210 211 212 213 
POINT_DATA 584
SCALARS RegionId vtkIdType
LOOKUP_TABLE default
0 0 0 0 0 0 0 0 0 
0 0 0 0 0 0 0 0 0 
0 0 0 0 0 0 0 0 0 
0 0 0 0 0 0 0 0 0 
0 0 0 0 0 0 0 0 0 
0 0 0 0 0 0 0 0 0 
0 0 0 0 0 0 0 0 0 
0 0 0 0 0 0 0 0 0 
0 0 0 0 0 0 0 0 0 
0 0 0 0 0 0 0 0 0 
0 0 0 0 0 0 0 0 0 
0 0 0 0 0 0 0 0 0 
0 0 0 0 0 0 0 0 0 
0 0 0 0 0 0 0 0 0 
0 0 0 0 0 0 0 0 0 
0 0 0 0 0 0 0 0 0 
0 0 0 0 0 0 0 0 0 
0 0 0 0 0 0 0 0 0 
0 0 0 0 0 0 0 0 0 
0 0 0 0 0 0 0 0 0 
0 0 0 0 0 0 0 0 0 
0 0 0 0 0 0 0 0 0 
0 0 0 0 0 0 0 0 0 
0 0 0 0 0 0 0 0 0 
0 0 0 0 0 0 0 0 0 
0 0 0 0 0 0 0 0 0 
0 0 0 0 0 0 0 0 0 
0 0 0 0 0 0 0 0 0 
0 0 0 0 0 0 0 0 0 
0 0 0 0 0 0 0 0 0 
0 0 0 0 0 0 0 0 0 
0 0 0 0 0 0 0 0 0 
0 0 0 0 0 0 0 0 1 
1 1 1 1 1 1 1 2 2 
2 2 2 2 2 2 3 3 3 
3 3 3 3 3 4 4 4 4 
4 4 4 4 5 5 5 5 5 
5 5 5 6 6 6 6 6 6 
6 6 7 7 7 7 7 7 7 
7 8 8 8 8 8 8 8 8 
9 9 9 9 9 9 9 9 10 
10 10 10 10 10 10 10 11 11 
11 11 11 11 11 11 12 12 12 
12 12 12 12 12 13 13 13 13 
13 13 13 13 14 14 14 14 14 
14 14 14 15 15 15 15 15 15 
15 15 16 16 16 16 16 16 16 
16 17 17 17 17 17 17 17 17 
18 18 18 18 18 18 18 18 19 
19 19 19 19 19 19 19 20 20 
20 20 20 20 20 20 21 21 21 
21 21 21 21 21 22 22 22 22 
22 22 22 22 23 23 23 23 23 
23 23 23 24 24 24 24 24 24 
24 24 25 25 25 25 25 25 25 
25 26 26 26 26 26 26 26 26 
27 27 27 27 27 27 27 27 28 
28 28 28 28 28 28 28 29 29 
29 29 29 29 29 29 30 30 30 
30 30 30 30 30 31 31 31 31 
31 31 31 31 32 32 32 32 32 
32 32 32 33 33 33 33 33 33 
33 33 34 34 34 34 34 34 34 
34 35 35 35 35 35 35 35 35 
36 36 36 36 36 36 36 36 
