# vtk DataFile Version 4.0
vtk output
ASCII
DATASET POLYDATA
POINTS 3608 double
-2.5 -0.5 -2.5 -2.5 -0.5 72.5 -2.5 0.5 72.5 
-2.5 0.5 -2.5 72.5 0.5 -2.5 72.5 -0.5 -2.5 
5 -0.5 -0.5 15 -0.5 -0.5 10 -0.5 -0.5 
20 -0.5 -0.5 25 -0.5 -0.5 30 -0.5 -0.5 
35 -0.5 -0.5 40 -0.5 -0.5 45 -0.5 -0.5 
50 -0.5 -0.5 55 -0.5 -0.5 60 -0.5 -0.5 
65 -0.5 -0.5 70 -0.5 -0.5 3.06162e-17 -0.5 -0.5 
3.06162e-17 -0.5 4.5 -0.5 -0.5 5 -0.5 -0.5 -6.12323e-17 
-0.5 -0.5 10 -0.5 -0.5 15 -0.5 -0.5 20 
-0.5 -0.5 25 -0.5 -0.5 30 -0.5 -0.5 35 
-0.5 -0.5 40 -0.5 -0.5 45 -0.5 -0.5 50 
-0.5 -0.5 55 -0.5 -0.5 60 -0.5 -0.5 65 
-0.5 -0.5 70 72.5 -0.5 72.5 72.5 0.5 72.5 
4.5 -0.5 70 5 -0.5 70.5 -9.18485e-17 -0.5 70.5 
10 -0.5 70.5 15 -0.5 70.5 20 -0.5 70.5 
25 -0.5 70.5 30 -0.5 70.5 35 -0.5 70.5 
40 -0.5 70.5 45 -0.5 70.5 50 -0.5 70.5 
55 -0.5 70.5 60 -0.5 70.5 65 -0.5 70.5 
70 -0.5 70.5 -0.5 0.5 70 -0.5 0.5 65 
-9.18485e-17 0.5 70.5 10 0.5 70.5 5 0.5 70.5 
15 0.5 70.5 20 0.5 70.5 25 0.5 70.5 
30 0.5 70.5 35 0.5 70.5 40 0.5 70.5 
45 0.5 70.5 50 0.5 70.5 55 0.5 70.5 
60 0.5 70.5 65 0.5 70.5 70 0.5 70.5 
-0.5 0.5 -6.12323e-17 -0.5 0.5 10 -0.5 0.5 5 
-0.5 0.5 15 -0.5 0.5 20 -0.5 0.5 25 
-0.5 0.5 30 -0.5 0.5 35 -0.5 0.5 40 
-0.5 0.5 45 -0.5 0.5 50 -0.5 0.5 55 
-0.5 0.5 60 4.5 0.5 -6.12323e-17 5 0.5 -0.5 
3.06162e-17 0.5 -0.5 10 0.5 -0.5 15 0.5 -0.5 
20 0.5 -0.5 25 0.5 -0.5 30 0.5 -0.5 
35 0.5 -0.5 40 0.5 -0.5 45 0.5 -0.5 
50 0.5 -0.5 55 0.5 -0.5 60 0.5 -0.5 
65 0.5 -0.5 70 0.5 -0.5 70.5 0.5 0 
70 0.5 4.5 70.5 0.5 5 70.5 0.5 10 
70.5 0.5 15 70.5 0.5 20 70.5 0.5 25 
70.5 0.5 30 70.5 0.5 35 70.5 0.5 40 
70.5 0.5 45 70.5 0.5 50 70.5 0.5 55 
70.5 0.5 60 70.5 0.5 65 70.5 0.5 70 
70.5 -0.5 0 70.5 -0.5 10 70.5 -0.5 5 
70.5 -0.5 15 70.5 -0.5 20 70.5 -0.5 25 
70.5 -0.5 30 70.5 -0.5 35 70.5 -0.5 40 
70.5 -0.5 45 70.5 -0.5 50 70.5 -0.5 55 
70.5 -0.5 60 70.5 -0.5 65 70.5 -0.5 70 
9.5 -0.5 -6.12323e-17 5.5 -0.5 0 4.5 -0.5 -6.12323e-17 
0.5 -0.5 0 14.5 -0.5 -6.12323e-17 10.5 -0.5 0 
19.5 -0.5 -6.12323e-17 15.5 -0.5 0 24.5 -0.5 -6.12323e-17 
20.5 -0.5 0 29.5 -0.5 -6.12323e-17 25.5 -0.5 0 
34.5 -0.5 -6.12323e-17 30.5 -0.5 0 39.5 -0.5 -6.12323e-17 
35.5 -0.5 0 44.5 -0.5 -6.12323e-17 40.5 -0.5 0 
49.5 -0.5 -6.12323e-17 45.5 -0.5 0 54.5 -0.5 -6.12323e-17 
50.5 -0.5 0 59.5 -0.5 -6.12323e-17 55.5 -0.5 0 
64.5 -0.5 -6.12323e-17 60.5 -0.5 0 69.5 -0.5 -6.12323e-17 
65.5 -0.5 0 4.5 -0.5 5 0.5 -0.5 5 
-9.18485e-17 -0.5 0.5 -9.18485e-17 -0.5 5.5 3.06162e-17 -0.5 9.5 
-9.18485e-17 -0.5 10.5 3.06162e-17 -0.5 14.5 -9.18485e-17 -0.5 15.5 
3.06162e-17 -0.5 19.5 -9.18485e-17 -0.5 20.5 3.06162e-17 -0.5 24.5 
-9.18485e-17 -0.5 25.5 3.06162e-17 -0.5 29.5 -9.18485e-17 -0.5 30.5 
3.06162e-17 -0.5 34.5 -9.18485e-17 -0.5 35.5 3.06162e-17 -0.5 39.5 
-9.18485e-17 -0.5 40.5 3.06162e-17 -0.5 44.5 -9.18485e-17 -0.5 45.5 
3.06162e-17 -0.5 49.5 -9.18485e-17 -0.5 50.5 3.06162e-17 -0.5 54.5 
-9.18485e-17 -0.5 55.5 3.06162e-17 -0.5 59.5 -9.18485e-17 -0.5 60.5 
3.06162e-17 -0.5 64.5 -9.18485e-17 -0.5 65.5 3.06162e-17 -0.5 69.5 
5 -0.5 65.5 5 -0.5 69.5 0.5 -0.5 70 
5.5 -0.5 70 9.5 -0.5 70 10.5 -0.5 70 
14.5 -0.5 70 15.5 -0.5 70 19.5 -0.5 70 
20.5 -0.5 70 24.5 -0.5 70 25.5 -0.5 70 
29.5 -0.5 70 30.5 -0.5 70 34.5 -0.5 70 
35.5 -0.5 70 39.5 -0.5 70 40.5 -0.5 70 
44.5 -0.5 70 45.5 -0.5 70 49.5 -0.5 70 
50.5 -0.5 70 54.5 -0.5 70 55.5 -0.5 70 
59.5 -0.5 70 60.5 -0.5 70 64.5 -0.5 70 
65.5 -0.5 70 69.5 -0.5 70 3.06162e-17 0.5 69.5 
-9.18485e-17 0.5 65.5 3.06162e-17 0.5 64.5 -9.18485e-17 0.5 60.5 
0.5 0.5 70 4.5 0.5 70 9.5 0.5 70 
5.5 0.5 70 14.5 0.5 70 10.5 0.5 70 
19.5 0.5 70 15.5 0.5 70 24.5 0.5 70 
20.5 0.5 70 29.5 0.5 70 25.5 0.5 70 
34.5 0.5 70 30.5 0.5 70 39.5 0.5 70 
35.5 0.5 70 44.5 0.5 70 40.5 0.5 70 
49.5 0.5 70 45.5 0.5 70 54.5 0.5 70 
50.5 0.5 70 59.5 0.5 70 55.5 0.5 70 
64.5 0.5 70 60.5 0.5 70 69.5 0.5 70 
65.5 0.5 70 -9.18485e-17 0.5 0.5 3.06162e-17 0.5 4.5 
3.06162e-17 0.5 9.5 -9.18485e-17 0.5 5.5 3.06162e-17 0.5 14.5 
-9.18485e-17 0.5 10.5 3.06162e-17 0.5 19.5 -9.18485e-17 0.5 15.5 
3.06162e-17 0.5 24.5 -9.18485e-17 0.5 20.5 3.06162e-17 0.5 29.5 
-9.18485e-17 0.5 25.5 3.06162e-17 0.5 34.5 -9.18485e-17 0.5 30.5 
3.06162e-17 0.5 39.5 -9.18485e-17 0.5 35.5 3.06162e-17 0.5 44.5 
-9.18485e-17 0.5 40.5 3.06162e-17 0.5 49.5 -9.18485e-17 0.5 45.5 
3.06162e-17 0.5 54.5 -9.18485e-17 0.5 50.5 3.06162e-17 0.5 59.5 
-9.18485e-17 0.5 55.5 5 0.5 0.5 0.5 0.5 0 
5.5 0.5 0 9.5 0.5 -6.12323e-17 10.5 0.5 0 
14.5 0.5 -6.12323e-17 15.5 0.5 0 19.5 0.5 -6.12323e-17 
20.5 0.5 0 24.5 0.5 -6.12323e-17 25.5 0.5 0 
29.5 0.5 -6.12323e-17 30.5 0.5 0 34.5 0.5 -6.12323e-17 
35.5 0.5 0 39.5 0.5 -6.12323e-17 40.5 0.5 0 
44.5 0.5 -6.12323e-17 45.5 0.5 0 49.5 0.5 -6.12323e-17 
50.5 0.5 0 54.5 0.5 -6.12323e-17 55.5 0.5 0 
59.5 0.5 -6.12323e-17 60.5 0.5 0 64.5 0.5 -6.12323e-17 
65.5 0.5 0 69.5 0.5 -6.12323e-17 65.5 0.5 5 
69.5 0.5 5 70 0.5 0.5 70 0.5 5.5 
70 0.5 9.5 70 0.5 10.5 70 0.5 14.5 
70 0.5 15.5 70 0.5 19.5 70 0.5 20.5 
70 0.5 24.5 70 0.5 25.5 70 0.5 29.5 
70 0.5 30.5 70 0.5 34.5 70 0.5 35.5 
70 0.5 39.5 70 0.5 40.5 70 0.5 44.5 
70 0.5 45.5 70 0.5 49.5 70 0.5 50.5 
70 0.5 54.5 70 0.5 55.5 70 0.5 59.5 
70 0.5 60.5 70 0.5 64.5 70 0.5 65.5 
70 0.5 69.5 70 -0.5 0.5 70 -0.5 4.5 
70 -0.5 9.5 70 -0.5 5.5 70 -0.5 14.5 
70 -0.5 10.5 70 -0.5 19.5 70 -0.5 15.5 
70 -0.5 24.5 70 -0.5 20.5 70 -0.5 29.5 
70 -0.5 25.5 70 -0.5 34.5 70 -0.5 30.5 
70 -0.5 39.5 70 -0.5 35.5 70 -0.5 44.5 
70 -0.5 40.5 70 -0.5 49.5 70 -0.5 45.5 
70 -0.5 54.5 70 -0.5 50.5 70 -0.5 59.5 
70 -0.5 55.5 70 -0.5 64.5 70 -0.5 60.5 
70 -0.5 69.5 70 -0.5 65.5 5 -0.5 0.5 
10 -0.5 0.5 10 -0.5 4.5 9.5 -0.5 5 
5.5 -0.5 5 5 -0.5 4.5 15 -0.5 0.5 
15 -0.5 4.5 14.5 -0.5 5 10.5 -0.5 5 
20 -0.5 0.5 20 -0.5 4.5 19.5 -0.5 5 
15.5 -0.5 5 25 -0.5 0.5 25 -0.5 4.5 
24.5 -0.5 5 20.5 -0.5 5 30 -0.5 0.5 
30 -0.5 4.5 29.5 -0.5 5 25.5 -0.5 5 
35 -0.5 0.5 35 -0.5 4.5 34.5 -0.5 5 
30.5 -0.5 5 40 -0.5 0.5 40 -0.5 4.5 
39.5 -0.5 5 35.5 -0.5 5 45 -0.5 0.5 
45 -0.5 4.5 44.5 -0.5 5 40.5 -0.5 5 
50 -0.5 0.5 50 -0.5 4.5 49.5 -0.5 5 
45.5 -0.5 5 55 -0.5 0.5 55 -0.5 4.5 
54.5 -0.5 5 50.5 -0.5 5 60 -0.5 0.5 
60 -0.5 4.5 59.5 -0.5 5 55.5 -0.5 5 
65 -0.5 0.5 65 -0.5 4.5 64.5 -0.5 5 
60.5 -0.5 5 69.5 -0.5 5 65.5 -0.5 5 
5 -0.5 5.5 5 -0.5 9.5 4.5 -0.5 10 
0.5 -0.5 10 5 -0.5 10.5 5 -0.5 14.5 
4.5 -0.5 15 0.5 -0.5 15 5 -0.5 15.5 
5 -0.5 19.5 4.5 -0.5 20 0.5 -0.5 20 
5 -0.5 20.5 5 -0.5 24.5 4.5 -0.5 25 
0.5 -0.5 25 5 -0.5 25.5 5 -0.5 29.5 
4.5 -0.5 30 0.5 -0.5 30 5 -0.5 30.5 
5 -0.5 34.5 4.5 -0.5 35 0.5 -0.5 35 
5 -0.5 35.5 5 -0.5 39.5 4.5 -0.5 40 
0.5 -0.5 40 5 -0.5 40.5 5 -0.5 44.5 
4.5 -0.5 45 0.5 -0.5 45 5 -0.5 45.5 
5 -0.5 49.5 4.5 -0.5 50 0.5 -0.5 50 
5 -0.5 50.5 5 -0.5 54.5 4.5 -0.5 55 
0.5 -0.5 55 5 -0.5 55.5 5 -0.5 59.5 
4.5 -0.5 60 0.5 -0.5 60 5 -0.5 60.5 
5 -0.5 64.5 4.5 -0.5 65 0.5 -0.5 65 
5.5 -0.5 65 9.5 -0.5 65 10 -0.5 65.5 
10 -0.5 69.5 14.5 -0.5 65 15 -0.5 65.5 
15 -0.5 69.5 10.5 -0.5 65 15.5 -0.5 65 
19.5 -0.5 65 20 -0.5 65.5 20 -0.5 69.5 
20.5 -0.5 65 24.5 -0.5 65 25 -0.5 65.5 
25 -0.5 69.5 29.5 -0.5 65 30 -0.5 65.5 
30 -0.5 69.5 25.5 -0.5 65 30.5 -0.5 65 
34.5 -0.5 65 35 -0.5 65.5 35 -0.5 69.5 
39.5 -0.5 65 40 -0.5 65.5 40 -0.5 69.5 
35.5 -0.5 65 44.5 -0.5 65 45 -0.5 65.5 
45 -0.5 69.5 40.5 -0.5 65 45.5 -0.5 65 
49.5 -0.5 65 50 -0.5 65.5 50 -0.5 69.5 
50.5 -0.5 65 54.5 -0.5 65 55 -0.5 65.5 
55 -0.5 69.5 55.5 -0.5 65 59.5 -0.5 65 
60 -0.5 65.5 60 -0.5 69.5 64.5 -0.5 65 
65 -0.5 65.5 65 -0.5 69.5 60.5 -0.5 65 
69.5 -0.5 65 65.5 -0.5 65 5 0.5 69.5 
5 0.5 65.5 4.5 0.5 65 0.5 0.5 65 
5 0.5 64.5 5 0.5 60.5 4.5 0.5 60 
0.5 0.5 60 10 0.5 69.5 10 0.5 65.5 
9.5 0.5 65 5.5 0.5 65 10.5 0.5 65 
15 0.5 69.5 15 0.5 65.5 14.5 0.5 65 
20 0.5 69.5 20 0.5 65.5 19.5 0.5 65 
15.5 0.5 65 25 0.5 69.5 25 0.5 65.5 
24.5 0.5 65 20.5 0.5 65 25.5 0.5 65 
30 0.5 69.5 30 0.5 65.5 29.5 0.5 65 
35 0.5 69.5 35 0.5 65.5 34.5 0.5 65 
30.5 0.5 65 35.5 0.5 65 40 0.5 69.5 
40 0.5 65.5 39.5 0.5 65 40.5 0.5 65 
45 0.5 69.5 45 0.5 65.5 44.5 0.5 65 
50 0.5 69.5 50 0.5 65.5 49.5 0.5 65 
45.5 0.5 65 55 0.5 69.5 55 0.5 65.5 
54.5 0.5 65 50.5 0.5 65 60 0.5 69.5 
60 0.5 65.5 59.5 0.5 65 55.5 0.5 65 
60.5 0.5 65 65 0.5 69.5 65 0.5 65.5 
64.5 0.5 65 65.5 0.5 65 69.5 0.5 65 
0.5 0.5 5 4.5 0.5 5 5 0.5 4.5 
0.5 0.5 10 4.5 0.5 10 5 0.5 9.5 
5 0.5 5.5 0.5 0.5 15 4.5 0.5 15 
5 0.5 14.5 5 0.5 10.5 0.5 0.5 20 
4.5 0.5 20 5 0.5 19.5 5 0.5 15.5 
0.5 0.5 25 4.5 0.5 25 5 0.5 24.5 
5 0.5 20.5 0.5 0.5 30 4.5 0.5 30 
5 0.5 29.5 5 0.5 25.5 0.5 0.5 35 
4.5 0.5 35 5 0.5 34.5 5 0.5 30.5 
0.5 0.5 40 4.5 0.5 40 5 0.5 39.5 
5 0.5 35.5 0.5 0.5 45 4.5 0.5 45 
5 0.5 44.5 5 0.5 40.5 0.5 0.5 50 
4.5 0.5 50 5 0.5 49.5 5 0.5 45.5 
0.5 0.5 55 4.5 0.5 55 5 0.5 54.5 
5 0.5 50.5 5 0.5 59.5 5 0.5 55.5 
10 0.5 4.5 10 0.5 0.5 5.5 0.5 5 
9.5 0.5 5 10.5 0.5 5 14.5 0.5 5 
15 0.5 4.5 15 0.5 0.5 15.5 0.5 5 
19.5 0.5 5 20 0.5 4.5 20 0.5 0.5 
20.5 0.5 5 24.5 0.5 5 25 0.5 4.5 
25 0.5 0.5 25.5 0.5 5 29.5 0.5 5 
30 0.5 4.5 30 0.5 0.5 30.5 0.5 5 
34.5 0.5 5 35 0.5 4.5 35 0.5 0.5 
35.5 0.5 5 39.5 0.5 5 40 0.5 4.5 
40 0.5 0.5 40.5 0.5 5 44.5 0.5 5 
45 0.5 4.5 45 0.5 0.5 45.5 0.5 5 
49.5 0.5 5 50 0.5 4.5 50 0.5 0.5 
50.5 0.5 5 54.5 0.5 5 55 0.5 4.5 
55 0.5 0.5 55.5 0.5 5 59.5 0.5 5 
60 0.5 4.5 60 0.5 0.5 60.5 0.5 5 
64.5 0.5 5 65 0.5 4.5 65 0.5 0.5 
65 0.5 5.5 65 0.5 9.5 65.5 0.5 10 
69.5 0.5 10 65 0.5 10.5 65 0.5 14.5 
65.5 0.5 15 69.5 0.5 15 65 0.5 15.5 
65 0.5 19.5 65.5 0.5 20 69.5 0.5 20 
65 0.5 20.5 65 0.5 24.5 65.5 0.5 25 
69.5 0.5 25 65 0.5 25.5 65 0.5 29.5 
65.5 0.5 30 69.5 0.5 30 65 0.5 30.5 
65 0.5 34.5 65.5 0.5 35 69.5 0.5 35 
65 0.5 39.5 65.5 0.5 40 69.5 0.5 40 
65 0.5 35.5 65 0.5 40.5 65 0.5 44.5 
65.5 0.5 45 69.5 0.5 45 65 0.5 45.5 
65 0.5 49.5 65.5 0.5 50 69.5 0.5 50 
65 0.5 50.5 65 0.5 54.5 65.5 0.5 55 
69.5 0.5 55 65 0.5 59.5 65.5 0.5 60 
69.5 0.5 60 65 0.5 55.5 65 0.5 60.5 
65 0.5 64.5 69.5 -0.5 10 65.5 -0.5 10 
65 -0.5 9.5 65 -0.5 5.5 69.5 -0.5 15 
65.5 -0.5 15 65 -0.5 14.5 65 -0.5 10.5 
69.5 -0.5 20 65.5 -0.5 20 65 -0.5 19.5 
65 -0.5 15.5 69.5 -0.5 25 65.5 -0.5 25 
65 -0.5 24.5 65 -0.5 20.5 69.5 -0.5 30 
65.5 -0.5 30 65 -0.5 29.5 65 -0.5 25.5 
[...]
CELL_DATA 1524
FIELD FieldData 2
OrigCellIdsA 1 1524 int
0 1 4 5 2 2 2 2 2 
2 2 2 2 2 2 2 2 2 
2 2 2 2 2 2 2 2 2 
2 2 2 2 2 2 2 2 2 
2 2 2 2 2 2 2 2 2 
2 2 2 2 2 2 2 2 2 
2 2 2 2 2 2 2 2 2 
2 2 2 2 2 2 2 2 2 
2 2 2 2 2 2 2 2 2 
2 2 2 2 2 2 2 2 2 
2 2 2 2 2 2 2 2 2 
2 2 2 2 2 2 2 2 2 
2 2 2 2 2 2 2 2 2 
2 2 2 2 2 2 2 2 2 
2 2 2 2 2 2 2 2 2 
2 2 2 2 2 2 2 2 2 
2 2 2 2 2 2 2 2 2 
2 2 2 2 2 2 2 2 2 
2 2 2 2 2 2 2 2 2 
2 2 2 2 2 2 2 2 2 
2 2 2 2 2 2 2 2 2 
2 2 2 2 2 2 2 2 2 
2 2 2 2 2 2 2 2 2 
2 2 2 2 2 2 2 2 2 
2 2 2 2 2 2 2 2 2 
2 2 2 2 2 2 2 2 2 
2 2 2 2 2 2 2 2 2 
2 2 2 2 2 2 2 2 2 
2 2 2 2 2 2 2 2 2 
2 2 2 2 2 2 2 2 2 
2 2 2 2 2 2 2 2 2 
2 2 2 2 2 2 2 2 2 
2 2 2 2 2 2 2 2 2 
2 2 2 2 2 2 2 2 2 
2 2 2 2 2 2 2 2 3 
3 3 3 3 3 3 3 3 3 
3 3 3 3 3 3 3 3 3 
3 3 3 3 3 3 3 3 3 
3 3 3 3 3 3 3 3 3 
3 3 3 3 3 3 3 3 3 
3 3 3 3 3 3 3 3 3 
3 3 3 3 3 3 3 3 3 
3 3 3 3 3 3 3 3 3 
3 3 3 3 3 3 3 3 3 
3 3 3 3 3 3 3 3 3 
3 3 3 3 3 3 3 3 3 
3 3 3 3 3 3 3 3 3 
3 3 3 3 3 3 3 3 3 
3 3 3 3 3 3 3 3 3 
3 3 3 3 3 3 3 3 3 
3 3 3 3 3 3 3 3 3 
3 3 3 3 3 3 3 3 3 
3 3 3 3 3 3 3 3 3 
3 3 3 3 3 3 3 3 3 
3 3 3 3 3 3 3 3 3 
3 3 3 3 3 3 3 3 3 
3 3 3 3 3 3 3 3 3 
3 3 3 3 3 3 3 3 3 
3 3 3 3 3 3 3 3 3 
3 3 3 3 3 3 3 3 3 
3 3 3 3 3 3 3 3 3 
3 3 3 3 3 3 3 3 3 
3 3 3 3 3 3 3 3 3 
3 3 3 3 3 3 3 3 3 
3 3 3 3 3 3 3 3 3 
3 3 3 3 3 3 3 3 3 
3 3 3 3 3 3 3 3 3 
3 3 3 3 3 3 3 3 3 
3 3 3 3 3 3 3 3 3 
3 3 3 -1 -1 -1 -1 -1 -1 
-1 -1 -1 -1 -1 -1 -1 -1 -1 
-1 -1 -1 -1 -1 -1 -1 -1 -1 
-1 -1 -1 -1 -1 -1 -1 -1 -1 
-1 -1 -1 -1 -1 -1 -1 -1 -1 
-1 -1 -1 -1 -1 -1 -1 -1 -1 
-1 -1 -1 -1 -1 -1 -1 -1 -1 
-1 -1 -1 -1 -1 -1 -1 -1 -1 
-1 -1 -1 -1 -1 -1 -1 -1 -1 
-1 -1 -1 -1 -1 -1 -1 -1 -1 
-1 -1 -1 -1 -1 -1 -1 -1 -1 
-1 -1 -1 -1 -1 -1 -1 -1 -1 
-1 -1 -1 -1 -1 -1 -1 -1 -1 
-1 -1 -1 -1 -1 -1 -1 -1 -1 
-1 -1 -1 -1 -1 -1 -1 -1 -1 
-1 -1 -1 -1 -1 -1 -1 -1 -1 
-1 -1 -1 -1 -1 -1 -1 -1 -1 
-1 -1 -1 -1 -1 -1 -1 -1 -1 
-1 -1 -1 -1 -1 -1 -1 -1 -1 
-1 -1 -1 -1 -1 -1 -1 -1 -1 
-1 -1 -1 -1 -1 -1 -1 -1 -1 
-1 -1 -1 -1 -1 -1 -1 -1 -1 
-1 -1 -1 -1 -1 -1 -1 -1 -1 
-1 -1 -1 -1 -1 -1 -1 -1 -1 
-1 -1 -1 -1 -1 -1 -1 -1 -1 
-1 -1 -1 -1 -1 -1 -1 -1 -1 
-1 -1 -1 -1 -1 -1 -1 -1 -1 
-1 -1 -1 -1 -1 -1 -1 -1 -1 
-1 -1 -1 -1 -1 -1 -1 -1 -1 
-1 -1 -1 -1 -1 -1 -1 -1 -1 
-1 -1 -1 -1 -1 -1 -1 -1 -1 
-1 -1 -1 -1 -1 -1 -1 -1 -1 
-1 -1 -1 -1 -1 -1 -1 -1 -1 
-1 -1 -1 -1 -1 -1 -1 -1 -1 
-1 -1 -1 -1 -1 -1 -1 -1 -1 
-1 -1 -1 -1 -1 -1 -1 -1 -1 
-1 -1 -1 -1 -1 -1 -1 -1 -1 
-1 -1 -1 -1 -1 -1 -1 -1 -1 
-1 -1 -1 -1 -1 -1 -1 -1 -1 
-1 -1 -1 -1 -1 -1 -1 -1 -1 
-1 -1 -1 -1 -1 -1 -1 -1 -1 
-1 -1 -1 -1 -1 -1 -1 -1 -1 
-1 -1 -1 -1 -1 -1 -1 -1 -1 
-1 -1 -1 -1 -1 -1 -1 -1 -1 
-1 -1 -1 -1 -1 -1 -1 -1 -1 
-1 -1 -1 -1 -1 -1 -1 -1 -1 
-1 -1 -1 -1 -1 -1 -1 -1 -1 
-1 -1 -1 -1 -1 -1 -1 -1 -1 
-1 -1 -1 -1 -1 -1 -1 -1 -1 
-1 -1 -1 -1 -1 -1 -1 -1 -1 
-1 -1 -1 -1 -1 -1 -1 -1 -1 
-1 -1 -1 -1 -1 -1 -1 -1 -1 
-1 -1 -1 -1 -1 -1 -1 -1 -1 
-1 -1 -1 -1 -1 -1 -1 -1 -1 
-1 -1 -1 -1 -1 -1 -1 -1 -1 
-1 -1 -1 -1 -1 -1 -1 -1 -1 
-1 -1 -1 -1 -1 -1 -1 -1 -1 
-1 -1 -1 -1 -1 -1 -1 -1 -1 
-1 -1 -1 -1 -1 -1 -1 -1 -1 
-1 -1 -1 -1 -1 -1 -1 -1 -1 
-1 -1 -1 -1 -1 -1 -1 -1 -1 
-1 -1 -1 -1 -1 -1 -1 -1 -1 
-1 -1 -1 -1 -1 -1 -1 -1 -1 
-1 -1 -1 -1 -1 -1 -1 -1 -1 
-1 -1 -1 -1 -1 -1 -1 -1 -1 
-1 -1 -1 -1 -1 -1 -1 -1 -1 
-1 -1 -1 -1 -1 -1 -1 -1 -1 
-1 -1 -1 -1 -1 -1 -1 -1 -1 
-1 -1 -1 -1 -1 -1 -1 -1 -1 
-1 -1 -1 -1 -1 -1 -1 -1 -1 
-1 -1 -1 -1 -1 -1 -1 -1 -1 
-1 -1 -1 -1 -1 -1 -1 -1 -1 
-1 -1 -1 -1 -1 -1 -1 -1 -1 
-1 -1 -1 -1 -1 -1 -1 -1 -1 
-1 -1 -1 -1 -1 -1 -1 -1 -1 
-1 -1 -1 -1 -1 -1 -1 -1 -1 
-1 -1 -1 -1 -1 -1 -1 -1 -1 
-1 -1 -1 -1 -1 -1 -1 -1 -1 
-1 -1 -1 -1 -1 -1 -1 -1 -1 
-1 -1 -1 -1 -1 -1 -1 -1 -1 
-1 -1 -1 -1 -1 -1 -1 -1 -1 
-1 -1 -1 -1 -1 -1 -1 -1 -1 
-1 -1 -1 -1 -1 -1 -1 -1 -1 
-1 -1 -1 -1 -1 -1 -1 -1 -1 
-1 -1 -1 -1 -1 -1 -1 -1 -1 
-1 -1 -1 -1 -1 -1 -1 -1 -1 
-1 -1 -1 -1 -1 -1 -1 -1 -1 
-1 -1 -1 -1 -1 -1 -1 -1 -1 
-1 -1 -1 -1 -1 -1 -1 -1 -1 
-1 -1 -1 -1 -1 -1 -1 -1 -1 
-1 -1 -1 -1 -1 -1 -1 -1 -1 
-1 -1 -1 -1 -1 -1 -1 -1 -1 
-1 -1 -1 -1 -1 -1 -1 -1 -1 
-1 -1 -1 -1 -1 -1 -1 -1 -1 
-1 -1 -1 -1 -1 -1 -1 -1 -1 
-1 -1 -1 -1 -1 -1 -1 -1 -1 
-1 -1 -1 -1 -1 -1 -1 -1 -1 
-1 -1 -1 -1 -1 -1 -1 -1 -1 
-1 -1 -1 -1 -1 -1 -1 -1 -1 
-1 -1 -1 -1 -1 -1 -1 -1 -1 
-1 -1 -1 
OrigCellIdsB 1 1524 int
-1 -1 -1 -1 -1 -1 -1 -1 -1 
-1 -1 -1 -1 -1 -1 -1 -1 -1 
-1 -1 -1 -1 -1 -1 -1 -1 -1 
-1 -1 -1 -1 -1 -1 -1 -1 -1 
-1 -1 -1 -1 -1 -1 -1 -1 -1 
-1 -1 -1 -1 -1 -1 -1 -1 -1 
-1 -1 -1 -1 -1 -1 -1 -1 -1 
-1 -1 -1 -1 -1 -1 -1 -1 -1 
-1 -1 -1 -1 -1 -1 -1 -1 -1 
-1 -1 -1 -1 -1 -1 -1 -1 -1 
-1 -1 -1 -1 -1 -1 -1 -1 -1 
-1 -1 -1 -1 -1 -1 -1 -1 -1 
-1 -1 -1 -1 -1 -1 -1 -1 -1 
-1 -1 -1 -1 -1 -1 -1 -1 -1 
-1 -1 -1 -1 -1 -1 -1 -1 -1 
-1 -1 -1 -1 -1 -1 -1 -1 -1 
-1 -1 -1 -1 -1 -1 -1 -1 -1 
-1 -1 -1 -1 -1 -1 -1 -1 -1 
-1 -1 -1 -1 -1 -1 -1 -1 -1 
-1 -1 -1 -1 -1 -1 -1 -1 -1 
-1 -1 -1 -1 -1 -1 -1 -1 -1 
-1 -1 -1 -1 -1 -1 -1 -1 -1 
-1 -1 -1 -1 -1 -1 -1 -1 -1 
-1 -1 -1 -1 -1 -1 -1 -1 -1 
-1 -1 -1 -1 -1 -1 -1 -1 -1 
-1 -1 -1 -1 -1 -1 -1 -1 -1 
-1 -1 -1 -1 -1 -1 -1 -1 -1 
-1 -1 -1 -1 -1 -1 -1 -1 -1 
-1 -1 -1 -1 -1 -1 -1 -1 -1 
-1 -1 -1 -1 -1 -1 -1 -1 -1 
-1 -1 -1 -1 -1 -1 -1 -1 -1 
-1 -1 -1 -1 -1 -1 -1 -1 -1 
-1 -1 -1 -1 -1 -1 -1 -1 -1 
-1 -1 -1 -1 -1 -1 -1 -1 -1 
-1 -1 -1 -1 -1 -1 -1 -1 -1 
-1 -1 -1 -1 -1 -1 -1 -1 -1 
-1 -1 -1 -1 -1 -1 -1 -1 -1 
-1 -1 -1 -1 -1 -1 -1 -1 -1 
-1 -1 -1 -1 -1 -1 -1 -1 -1 
-1 -1 -1 -1 -1 -1 -1 -1 -1 
-1 -1 -1 -1 -1 -1 -1 -1 -1 
-1 -1 -1 -1 -1 -1 -1 -1 -1 
-1 -1 -1 -1 -1 -1 -1 -1 -1 
-1 -1 -1 -1 -1 -1 -1 -1 -1 
-1 -1 -1 -1 -1 -1 -1 -1 -1 
-1 -1 -1 -1 -1 -1 -1 -1 -1 
-1 -1 -1 -1 -1 -1 -1 -1 -1 
-1 -1 -1 -1 -1 -1 -1 -1 -1 
-1 -1 -1 -1 -1 -1 -1 -1 -1 
-1 -1 -1 -1 -1 -1 -1 -1 -1 
-1 -1 -1 -1 -1 -1 -1 -1 -1 
-1 -1 -1 -1 -1 -1 -1 -1 -1 
-1 -1 -1 -1 -1 -1 -1 -1 -1 
-1 -1 -1 -1 -1 -1 -1 -1 -1 
-1 -1 -1 -1 -1 -1 -1 -1 -1 
-1 -1 -1 -1 -1 -1 -1 -1 -1 
-1 -1 -1 -1 -1 -1 -1 -1 -1 
-1 -1 -1 -1 -1 -1 -1 -1 -1 
-1 -1 -1 -1 -1 -1 -1 -1 -1 
-1 -1 -1 -1 -1 -1 -1 -1 -1 
-1 -1 -1 -1 -1 -1 -1 -1 -1 
-1 -1 -1 -1 -1 -1 -1 -1 -1 
-1 -1 -1 -1 -1 -1 -1 -1 -1 
-1 -1 -1 -1 -1 -1 -1 -1 -1 
-1 -1 -1 -1 -1 -1 -1 -1 -1 
-1 -1 -1 -1 -1 -1 -1 -1 -1 
-1 -1 -1 -1 -1 -1 -1 -1 -1 
-1 -1 -1 -1 -1 -1 -1 -1 -1 
-1 -1 -1 -1 -1 -1 -1 -1 -1 
-1 -1 -1 0 1 2 3 6 7 
8 9 12 13 14 15 18 19 20 
21 24 25 26 27 30 31 32 33 
36 37 38 39 42 43 44 45 48 
49 50 51 54 55 56 57 60 61 
62 63 66 67 68 69 72 73 74 
75 78 79 80 81 84 85 86 87 
90 91 92 93 96 97 98 99 102 
103 104 105 108 109 110 111 114 115 
116 117 120 121 122 123 126 127 128 
129 132 133 134 135 138 139 140 141 
144 145 146 147 150 151 152 153 156 
157 158 159 162 163 164 165 168 169 
170 171 174 175 176 177 180 181 182 
183 186 187 188 189 192 193 194 195 
198 199 200 201 204 205 206 207 210 
211 212 213 216 217 218 219 222 223 
224 225 228 229 230 231 234 235 236 
237 240 241 242 243 246 247 248 249 
252 253 254 255 258 259 260 261 264 
265 266 267 270 271 272 273 276 277 
278 279 282 283 284 285 288 289 290 
291 294 295 296 297 300 301 302 303 
306 307 308 309 312 313 314 315 318 
319 320 321 324 325 326 327 330 331 
332 333 336 337 338 339 342 343 344 
345 348 349 350 351 354 355 356 357 
360 361 362 363 366 367 368 369 372 
373 374 375 378 379 380 381 384 385 
386 387 390 391 392 393 396 397 398 
399 402 403 404 405 408 409 410 411 
414 415 416 417 420 421 422 423 426 
427 428 429 432 433 434 435 438 439 
440 441 444 445 446 447 450 451 452 
453 456 457 458 459 462 463 464 465 
468 469 470 471 474 475 476 477 480 
481 482 483 486 487 488 489 492 493 
494 495 498 499 500 501 504 505 506 
507 510 511 512 513 516 517 518 519 
522 523 524 525 528 529 530 531 534 
535 536 537 540 541 542 543 546 547 
548 549 552 553 554 555 558 559 560 
561 564 565 566 567 570 571 572 573 
576 577 578 579 582 583 584 585 588 
589 590 591 594 595 596 597 600 601 
602 603 606 607 608 609 612 613 614 
615 618 619 620 621 624 625 626 627 
630 631 632 633 636 637 638 639 642 
643 644 645 648 649 650 651 654 655 
656 657 660 661 662 663 666 667 668 
669 672 673 674 675 678 679 680 681 
684 685 686 687 690 691 692 693 696 
697 698 699 702 703 704 705 708 709 
710 711 714 715 716 717 720 721 722 
723 726 727 728 729 732 733 734 735 
738 739 740 741 744 745 746 747 750 
751 752 753 756 757 758 759 762 763 
764 765 768 769 770 771 774 775 776 
777 780 781 782 783 786 787 788 789 
792 793 794 795 798 799 800 801 804 
805 806 807 810 811 812 813 816 817 
818 819 822 823 824 825 828 829 830 
831 834 835 836 837 840 841 842 843 
846 847 848 849 852 853 854 855 858 
859 860 861 864 865 866 867 870 871 
872 873 876 877 878 879 882 883 884 
885 888 889 890 891 894 895 896 897 
900 901 902 903 906 907 908 909 912 
913 914 915 918 919 920 921 924 925 
926 927 930 931 932 933 936 937 938 
939 942 943 944 945 948 949 950 951 
954 955 956 957 960 961 962 963 966 
967 968 969 972 973 974 975 978 979 
980 981 984 985 986 987 990 991 992 
993 996 997 998 999 1002 1003 1004 1005 
1008 1009 1010 1011 1014 1015 1016 1017 1020 
1021 1022 1023 1026 1027 1028 1029 1032 1033 
1034 1035 1038 1039 1040 1041 1044 1045 1046 
1047 1050 1051 1052 1053 1056 1057 1058 1059 
1062 1063 1064 1065 1068 1069 1070 1071 1074 
1075 1076 1077 1080 1081 1082 1083 1086 1087 
1088 1089 1092 1093 1094 1095 1098 1099 1100 
1101 1104 1105 1106 1107 1110 1111 1112 1113 
1116 1117 1118 1119 1122 1123 1124 1125 1128 
1129 1130 1131 1134 1135 1136 1137 1140 1141 
1142 1143 1146 1147 1148 1149 1152 1153 1154 
1155 1158 1159 1160 1161 1164 1165 1166 1167 
1170 1171 1172 1173 1176 1177 1178 1179 1182 
1183 1184 1185 1188 1189 1190 1191 1194 1195 
1196 1197 1200 1201 1202 1203 1206 1207 1208 
1209 1212 1213 1214 1215 1218 1219 1220 1221 
1224 1225 1226 1227 1230 1231 1232 1233 1236 
1237 1238 1239 1242 1243 1244 1245 1248 1249 
1250 1251 1254 1255 1256 1257 1260 1261 1262 
1263 1266 1267 1268 1269 1272 1273 1274 1275 
1278 1279 1280 1281 1284 1285 1286 1287 1290 
1291 1292 1293 1296 1297 1298 1299 1302 1303 
1304 1305 1308 1309 1310 1311 1314 1315 1316 
1317 1320 1321 1322 1323 1326 1327 1328 1329 
1332 1333 1334 1335 1338 1339 1340 1341 1344 
1345 1346 1347 
POINT_DATA 3608
SCALARS RegionId vtkIdType
LOOKUP_TABLE default
0 0 0 0 0 0 0 0 0 
0 0 0 0 0 0 0 0 0 
0 0 0 0 0 0 0 0 0 
0 0 0 0 0 0 0 0 0 
0 0 0 0 0 0 0 0 0 
0 0 0 0 0 0 0 0 0 
0 0 0 0 0 0 0 0 0 
0 0 0 0 0 0 0 0 0 
0 0 0 0 0 0 0 0 0 
0 0 0 0 0 0 0 0 0 
0 0 0 0 0 0 0 0 0 
0 0 0 0 0 0 0 0 0 
0 0 0 0 0 0 0 0 0 
0 0 0 0 0 0 0 0 0 
0 0 0 0 0 0 0 0 0 
0 0 0 0 0 0 0 0 0 
0 0 0 0 0 0 0 0 0 
0 0 0 0 0 0 0 0 0 
0 0 0 0 0 0 0 0 0 
0 0 0 0 0 0 0 0 0 
0 0 0 0 0 0 0 0 0 
0 0 0 0 0 0 0 0 0 
0 0 0 0 0 0 0 0 0 
0 0 0 0 0 0 0 0 0 
0 0 0 0 0 0 0 0 0 
0 0 0 0 0 0 0 0 0 
0 0 0 0 0 0 0 0 0 
0 0 0 0 0 0 0 0 0 
0 0 0 0 0 0 0 0 0 
0 0 0 0 0 0 0 0 0 
0 0 0 0 0 0 0 0 0 
0 0 0 0 0 0 0 0 0 
0 0 0 0 0 0 0 0 0 
0 0 0 0 0 0 0 0 0 
0 0 0 0 0 0 0 0 0 
0 0 0 0 0 0 0 0 0 
0 0 0 0 0 0 0 0 0 
0 0 0 0 0 0 0 0 0 
0 0 0 0 0 0 0 0 0 
0 0 0 0 0 0 0 0 0 
0 0 0 0 0 0 0 0 0 
0 0 0 0 0 0 0 0 0 
0 0 0 0 0 0 0 0 0 
0 0 0 0 0 0 0 0 0 
0 0 0 0 0 0 0 0 0 
0 0 0 0 0 0 0 0 0 
0 0 0 0 0 0 0 0 0 
0 0 0 0 0 0 0 0 0 
0 0 0 0 0 0 0 0 0 
0 0 0 0 0 0 0 0 0 
0 0 0 0 0 0 0 0 0 
0 0 0 0 0 0 0 0 0 
0 0 0 0 0 0 0 0 0 
0 0 0 0 0 0 0 0 0 
0 0 0 0 0 0 0 0 0 
0 0 0 0 0 0 0 0 0 
0 0 0 0 0 0 0 0 0 
0 0 0 0 0 0 0 0 0 
0 0 0 0 0 0 0 0 0 
0 0 0 0 0 0 0 0 0 
0 0 0 0 0 0 0 0 0 
0 0 0 0 0 0 0 0 0 
0 0 0 0 0 0 0 0 0 
0 0 0 0 0 0 0 0 0 
0 0 0 0 0 0 0 0 0 
0 0 0 0 0 0 0 0 0 
0 0 0 0 0 0 0 0 0 
0 0 0 0 0 0 0 0 0 
0 0 0 0 0 0 0 0 0 
0 0 0 0 0 0 0 0 0 
0 0 0 0 0 0 0 0 0 
0 0 0 0 0 0 0 0 0 
0 0 0 0 0 0 0 0 0 
0 0 0 0 0 0 0 0 0 
0 0 0 0 0 0 0 0 0 
0 0 0 0 0 0 0 0 0 
0 0 0 0 0 0 0 0 0 
0 0 0 0 0 0 0 0 0 
0 0 0 0 0 0 0 0 0 
0 0 0 0 0 0 0 0 0 
0 0 0 0 0 0 0 0 0 
0 0 0 0 0 0 0 0 0 
0 0 0 0 0 0 0 0 0 
0 0 0 0 0 0 0 0 0 
0 0 0 0 0 0 0 0 0 
0 0 0 0 0 0 0 0 0 
0 0 0 0 0 0 0 0 0 
0 0 0 0 0 0 0 0 0 
0 0 0 0 0 0 0 0 0 
0 0 0 0 0 0 0 0 0 
0 0 0 0 0 0 0 0 0 
0 0 0 0 0 0 0 0 0 
0 0 0 0 0 0 0 0 0 
0 0 0 0 0 0 0 0 0 
0 0 0 0 0 0 0 0 0 
0 0 0 0 0 0 0 0 0 
0 0 0 0 0 0 0 0 0 
0 0 0 0 0 0 0 0 0 
0 0 0 0 0 0 0 0 0 
0 0 0 0 0 0 0 0 0 
0 0 0 0 0 0 0 0 0 
0 0 0 0 0 0 0 0 0 
0 0 0 0 0 0 0 0 0 
0 0 0 0 0 0 0 0 0 
0 0 0 0 0 0 0 0 0 
0 0 0 0 0 0 0 0 0 
0 0 0 0 0 0 0 0 0 
0 0 0 0 0 0 0 0 0 
0 0 0 0 0 0 0 0 0 
0 0 0 0 0 0 0 0 0 
0 0 0 0 0 0 0 0 0 
0 0 0 0 0 0 0 0 0 
0 0 0 0 0 0 0 0 0 
0 0 0 0 0 0 0 0 0 
0 0 0 0 0 0 0 0 0 
0 0 0 0 0 0 0 0 0 
0 0 0 0 0 0 0 0 0 
0 0 0 0 0 0 0 0 0 
0 0 0 0 0 0 0 0 0 
0 0 0 0 0 0 0 0 0 
0 0 0 0 0 0 0 0 0 
0 0 0 0 0 0 0 0 0 
0 0 0 0 0 0 0 0 0 
0 0 0 0 0 0 0 0 0 
0 0 0 0 0 0 0 0 0 
0 0 0 0 0 0 0 0 0 
0 0 0 0 0 0 0 0 0 
0 0 0 0 0 0 0 0 0 
0 0 0 0 0 0 0 0 0 
0 0 0 0 0 0 0 0 0 
0 0 0 0 0 0 0 0 0 
0 0 0 0 0 0 0 0 0 
0 0 0 0 0 0 0 0 0 
0 0 0 0 0 0 0 0 0 
0 0 0 0 0 0 0 0 0 
0 0 0 0 0 0 0 0 0 
0 0 0 0 0 0 0 0 0 
0 0 0 0 0 0 0 0 0 
0 0 0 0 0 0 0 0 0 
0 0 0 0 0 0 0 0 0 
0 0 0 0 0 0 0 0 0 
0 0 0 0 0 0 0 0 0 
0 0 0 0 0 0 0 0 0 
0 0 0 0 0 0 0 0 0 
0 0 0 0 0 0 0 0 0 
0 0 0 0 0 0 0 0 0 
0 0 0 0 0 0 0 0 0 
0 0 0 0 0 0 0 0 0 
0 0 0 0 0 0 0 0 0 
0 0 0 0 0 0 0 0 0 
0 0 0 0 0 0 0 0 0 
0 0 0 0 0 0 0 0 0 
0 0 0 0 0 0 0 0 0 
0 0 0 0 0 0 0 0 0 
0 0 0 0 0 0 0 0 0 
0 0 0 0 0 0 0 0 0 
0 0 0 0 0 0 0 0 0 
0 0 0 0 0 0 0 0 0 
0 0 0 0 0 0 0 0 0 
0 0 0 0 0 0 0 0 0 
0 0 0 0 0 0 0 0 0 
0 0 0 0 0 0 0 0 0 
0 0 0 0 0 0 0 0 0 
0 0 0 0 0 0 0 0 0 
0 0 0 0 0 0 0 0 0 
0 0 0 0 0 0 0 0 0 
0 0 0 0 0 0 0 0 0 
0 0 0 0 0 0 0 0 0 
0 0 0 0 0 0 0 0 0 
0 0 0 0 0 0 0 0 0 
0 0 0 0 0 0 0 0 0 
0 0 0 0 0 0 0 0 0 
0 0 0 0 0 0 0 0 0 
0 0 0 0 0 0 0 0 0 
0 0 0 0 0 0 0 0 0 
0 0 0 0 0 0 0 0 0 
0 0 0 0 0 0 0 0 0 
0 0 0 0 0 0 0 0 0 
0 0 0 0 0 0 0 0 0 
0 0 0 0 0 0 0 0 0 
0 0 0 0 0 0 0 0 0 
0 0 0 0 0 0 0 0 0 
0 0 0 0 0 0 0 0 0 
0 0 0 0 0 0 0 0 0 
0 0 0 0 0 0 0 0 0 
0 0 0 0 0 0 0 0 0 
0 0 0 0 0 0 0 0 0 
0 0 0 0 0 0 0 0 0 
0 0 0 0 0 0 0 0 0 
0 0 0 0 0 0 0 0 0 
0 0 0 0 0 0 0 0 0 
0 0 0 0 0 0 0 0 0 
0 0 0 0 0 0 0 0 0 
0 0 0 0 0 0 0 0 0 
0 0 0 0 0 0 0 0 0 
0 0 0 0 0 0 0 0 0 
0 0 0 0 0 0 0 0 0 
0 0 0 0 0 0 0 0 0 
0 0 0 0 0 0 0 0 0 
0 0 0 0 0 0 0 0 0 
0 0 0 0 0 0 0 0 1 
1 1 1 1 1 1 1 2 2 
2 2 2 2 2 2 3 3 3 
3 3 3 3 3 4 4 4 4 
4 4 4 4 5 5 5 5 5 
5 5 5 6 6 6 6 6 6 
6 6 7 7 7 7 7 7 7 
7 8 8 8 8 8 8 8 8 
9 9 9 9 9 9 9 9 10 
10 10 10 10 10 10 10 11 11 
11 11 11 11 11 11 12 12 12 
12 12 12 12 12 13 13 13 13 
13 13 13 13 14 14 14 14 14 
14 14 14 15 15 15 15 15 15 
15 15 16 16 16 16 16 16 16 
16 17 17 17 17 17 17 17 17 
18 18 18 18 18 18 18 18 19 
19 19 19 19 19 19 19 20 20 
20 20 20 20 20 20 21 21 21 
21 21 21 21 21 22 22 22 22 
22 22 22 22 23 23 23 23 23 
23 23 23 24 24 24 24 24 24 
24 24 25 25 25 25 25 25 25 
25 26 26 26 26 26 26 26 26 
27 27 27 27 27 27 27 27 28 
28 28 28 28 28 28 28 29 29 
29 29 29 29 29 29 30 30 30 
30 30 30 30 30 31 31 31 31 
31 31 31 31 32 32 32 32 32 
32 32 32 33 33 33 33 33 33 
33 33 34 34 34 34 34 34 34 
34 35 35 35 35 35 35 35 35 
36 36 36 36 36 36 36 36 37 
37 37 37 37 37 37 37 38 38 
38 38 38 38 38 38 39 39 39 
39 39 39 39 39 40 40 40 40 
40 40 40 40 41 41 41 41 41 
41 41 41 42 42 42 42 42 42 
42 42 43 43 43 43 43 43 43 
43 44 44 44 44 44 44 44 44 
45 45 45 45 45 45 45 45 46 
46 46 46 46 46 46 46 47 47 
47 47 47 47 47 47 48 48 48 
48 48 48 48 48 49 49 49 49 
49 49 49 49 50 50 50 50 50 
50 50 50 51 51 51 51 51 51 
51 51 52 52 52 52 52 52 52 
52 53 53 53 53 53 53 53 53 
54 54 54 54 54 54 54 54 55 
55 55 55 55 55 55 55 56 56 
56 56 56 56 56 56 57 57 57 
57 57 57 57 57 58 58 58 58 
58 58 58 58 59 59 59 59 59 
59 59 59 60 60 60 60 60 60 
60 60 61 61 61 61 61 61 61 
61 62 62 62 62 62 62 62 62 
63 63 63 63 63 63 63 63 64 
64 64 64 64 64 64 64 65 65 
65 65 65 65 65 65 66 66 66 
66 66 66 66 66 67 67 67 67 
67 67 67 67 68 68 68 68 68 
68 68 68 69 69 69 69 69 69 
69 69 70 70 70 70 70 70 70 
70 71 71 71 71 71 71 71 71 
72 72 72 72 72 72 72 72 73 
73 73 73 73 73 73 73 74 74 
74 74 74 74 74 74 75 75 75 
75 75 75 75 75 76 76 76 76 
76 76 76 76 77 77 77 77 77 
77 77 77 78 78 78 78 78 78 
78 78 79 79 79 79 79 79 79 
79 80 80 80 80 80 80 80 80 
81 81 81 81 81 81 81 81 82 
82 82 82 82 82 82 82 83 83 
83 83 83 83 83 83 84 84 84 
84 84 84 84 84 85 85 85 85 
85 85 85 85 86 86 86 86 86 
86 86 86 87 87 87 87 87 87 
87 87 88 88 88 88 88 88 88 
88 89 89 89 89 89 89 89 89 
90 90 90 90 90 90 90 90 91 
91 91 91 91 91 91 91 92 92 
92 92 92 92 92 92 93 93 93 
93 93 93 93 93 94 94 94 94 
94 94 94 94 95 95 95 95 95 
95 95 95 96 96 96 96 96 96 
96 96 97 97 97 97 97 97 97 
97 98 98 98 98 98 98 98 98 
99 99 99 99 99 99 99 99 100 
100 100 100 100 100 100 100 101 101 
101 101 101 101 101 101 102 102 102 
102 102 102 102 102 103 103 103 103 
103 103 103 103 104 104 104 104 104 
104 104 104 105 105 105 105 105 105 
105 105 106 106 106 106 106 106 106 
106 107 107 107 107 107 107 107 107 
108 108 108 108 108 108 108 108 109 
109 109 109 109 109 109 109 110 110 
110 110 110 110 110 110 111 111 111 
111 111 111 111 111 112 112 112 112 
112 112 112 112 113 113 113 113 113 
113 113 113 114 114 114 114 114 114 
114 114 115 115 115 115 115 115 115 
115 116 116 116 116 116 116 116 116 
117 117 117 117 117 117 117 117 118 
118 118 118 118 118 118 118 119 119 
119 119 119 119 119 119 120 120 120 
120 120 120 120 120 121 121 121 121 
121 121 121 121 122 122 122 122 122 
122 122 122 123 123 123 123 123 123 
123 123 124 124 124 124 124 124 124 
124 125 125 125 125 125 125 125 125 
126 126 126 126 126 126 126 126 127 
127 127 127 127 127 127 127 128 128 
128 128 128 128 128 128 129 129 129 
129 129 129 129 129 130 130 130 130 
130 130 130 130 131 131 131 131 131 
131 131 131 132 132 132 132 132 132 
132 132 133 133 133 133 133 133 133 
133 134 134 134 134 134 134 134 134 
135 135 135 135 135 135 135 135 136 
136 136 136 136 136 136 136 137 137 
137 137 137 137 137 137 138 138 138 
138 138 138 138 138 139 139 139 139 
139 139 139 139 140 140 140 140 140 
140 140 140 141 141 141 141 141 141 
141 141 142 142 142 142 142 142 142 
142 143 143 143 143 143 143 143 143 
144 144 144 144 144 144 144 144 145 
145 145 145 145 145 145 145 146 146 
146 146 146 146 146 146 147 147 147 
147 147 147 147 147 148 148 148 148 
148 148 148 148 149 149 149 149 149 
149 149 149 150 150 150 150 150 150 
150 150 151 151 151 151 151 151 151 
151 152 152 152 152 152 152 152 152 
153 153 153 153 153 153 153 153 154 
154 154 154 154 154 154 154 155 155 
155 155 155 155 155 155 156 156 156 
156 156 156 156 156 157 157 157 157 
157 157 157 157 158 158 158 158 158 
158 158 158 159 159 159 159 159 159 
159 159 160 160 160 160 160 160 160 
160 161 161 161 161 161 161 161 161 
162 162 162 162 162 162 162 162 163 
163 163 163 163 163 163 163 164 164 
164 164 164 164 164 164 165 165 165 
165 165 165 165 165 166 166 166 166 
166 166 166 166 167 167 167 167 167 
167 167 167 168 168 168 168 168 168 
168 168 169 169 169 169 169 169 169 
169 170 170 170 170 170 170 170 170 
171 171 171 171 171 171 171 171 172 
172 172 172 172 172 172 172 173 173 
173 173 173 173 173 173 174 174 174 
174 174 174 174 174 175 175 175 175 
175 175 175 175 176 176 176 176 176 
176 176 176 177 177 177 177 177 177 
177 177 178 178 178 178 178 178 178 
178 179 179 179 179 179 179 179 179 
180 180 180 180 180 180 180 180 181 
181 181 181 181 181 181 181 182 182 
182 182 182 182 182 182 183 183 183 
183 183 183 183 183 184 184 184 184 
184 184 184 184 185 185 185 185 185 
185 185 185 186 186 186 186 186 186 
186 186 187 187 187 187 187 187 187 
187 188 188 188 188 188 188 188 188 
189 189 189 189 189 189 189 189 190 
190 190 190 190 190 190 190 191 191 
191 191 191 191 191 191 192 192 192 
192 192 192 192 192 193 193 193 193 
193 193 193 193 194 194 194 194 194 
194 194 194 195 195 195 195 195 195 
195 195 196 196 196 196 196 196 196 
196 197 197 197 197 197 197 197 197 
198 198 198 198 198 198 198 198 199 
199 199 199 199 199 199 199 200 200 
200 200 200 200 200 200 201 201 201 
201 201 201 201 201 202 202 202 202 
202 202 202 202 203 203 203 203 203 
203 203 203 204 204 204 204 204 204 
204 204 205 205 205 205 205 205 205 
205 206 206 206 206 206 206 206 206 
207 207 207 207 207 207 207 207 208 
208 208 208 208 208 208 208 209 209 
209 209 209 209 209 209 210 210 210 
210 210 210 210 210 211 211 211 211 
211 211 211 211 212 212 212 212 212 