# vtk DataFile Version 4.0
vtk output
ASCII
DATASET POLYDATA
POINTS 200 double
0.466667 -0.541667 1.16667 0.466667 -0.391667 0.541667 0.466667 -0.541667 0.541667 
0.466667 -0.391667 1.16667 0.616667 -0.391667 0.541667 0.616667 -0.391667 1.16667 
0.616667 -0.541667 0.541667 0.616667 -0.541667 1.16667 1.55 -0.541667 0.541667 
1.55 -0.541667 1.16667 1.55 -0.391667 0.541667 1.55 -0.391667 1.16667 
1.7 -0.391667 0.541667 1.7 -0.391667 1.16667 1.7 -0.541667 0.541667 
1.7 -0.541667 1.16667 2.63333 -0.541667 0.541667 2.63333 -0.541667 1.16667 
2.63333 -0.391667 0.541667 2.63333 -0.391667 1.16667 2.78333 -0.391667 0.541667 
2.78333 -0.391667 1.16667 2.78333 -0.541667 0.541667 2.78333 -0.541667 1.16667 
3.71667 -0.541667 0.541667 3.71667 -0.541667 1.16667 3.71667 -0.391667 0.541667 
3.71667 -0.391667 1.16667 3.86667 -0.391667 0.541667 3.86667 -0.391667 1.16667 
3.86667 -0.541667 0.541667 3.86667 -0.541667 1.16667 4.8 -0.541667 0.541667 
4.8 -0.541667 1.16667 4.8 -0.391667 0.541667 4.8 -0.391667 1.16667 
4.95 -0.391667 0.541667 4.95 -0.391667 1.16667 4.95 -0.541667 0.541667 
4.95 -0.541667 1.16667 5.88333 -0.541667 0.541667 5.88333 -0.541667 1.16667 
5.88333 -0.391667 0.541667 5.88333 -0.391667 1.16667 6.03333 -0.391667 0.541667 
6.03333 -0.391667 1.16667 6.03333 -0.541667 0.541667 6.03333 -0.541667 1.16667 
8.58333 -0.541667 0.541667 8.58333 1 0.541667 8.58333 -0.541667 1.16667 
8.58333 1 1.16667 7.73333 -0.541667 1.16667 7.73333 -0.541667 1.31667 
7.73333 0.15 1.31667 8.58333 -0.541667 1.31667 8.58333 1 1.31667 
7.73333 0.15 1.16667 0.466667 -0.541667 -0.541667 0.466667 -0.391667 -0.541667 
0.466667 -0.541667 -1.16667 0.466667 -0.391667 -1.16667 0.616667 -0.391667 -0.541667 
0.616667 -0.391667 -1.16667 0.616667 -0.541667 -0.541667 0.616667 -0.541667 -1.16667 
1.55 -0.541667 -0.541667 1.55 -0.541667 -1.16667 1.55 -0.391667 -0.541667 
1.55 -0.391667 -1.16667 1.7 -0.391667 -0.541667 1.7 -0.391667 -1.16667 
1.7 -0.541667 -0.541667 1.7 -0.541667 -1.16667 2.63333 -0.541667 -0.541667 
2.63333 -0.541667 -1.16667 2.63333 -0.391667 -0.541667 2.63333 -0.391667 -1.16667 
2.78333 -0.391667 -0.541667 2.78333 -0.391667 -1.16667 2.78333 -0.541667 -0.541667 
2.78333 -0.541667 -1.16667 3.71667 -0.541667 -0.541667 3.71667 -0.541667 -1.16667 
3.71667 -0.391667 -0.541667 3.71667 -0.391667 -1.16667 3.86667 -0.391667 -0.541667 
3.86667 -0.391667 -1.16667 3.86667 -0.541667 -0.541667 3.86667 -0.541667 -1.16667 
4.8 -0.541667 -0.541667 4.8 -0.541667 -1.16667 4.8 -0.391667 -0.541667 
4.8 -0.391667 -1.16667 4.95 -0.391667 -0.541667 4.95 -0.391667 -1.16667 
4.95 -0.541667 -0.541667 4.95 -0.541667 -1.16667 5.88333 -0.541667 -0.541667 
5.88333 -0.541667 -1.16667 5.88333 -0.391667 -0.541667 5.88333 -0.391667 -1.16667 
6.03333 -0.391667 -0.541667 6.03333 -0.391667 -1.16667 6.03333 -0.541667 -0.541667 
6.03333 -0.541667 -1.16667 8.58333 -0.541667 -0.541667 8.58333 1 -0.541667 
8.58333 1 -1.16667 8.58333 -0.541667 -1.16667 7.73333 -0.541667 -1.16667 
7.73333 0.15 -1.31667 7.73333 -0.541667 -1.31667 8.58333 -0.541667 -1.31667 
8.58333 1 -1.31667 7.73333 0.15 -1.16667 8.58333 0.35 0.541667 
8.58333 0.35 -0.541667 0.433333 0 0.541667 0.866667 0.433333 -0.541667 
0.433333 0 -0.541667 0.866667 0.433333 0.541667 1.3 0 -0.541667 
1.3 0 0.541667 1.73333 0.433333 -0.541667 1.73333 0.433333 0.541667 
2.16667 0 -0.541667 2.16667 0 0.541667 2.6 0.433333 -0.541667 
2.6 0.433333 0.541667 3.03333 0 -0.541667 3.03333 0 0.541667 
3.46667 0.433333 -0.541667 3.46667 0.433333 0.541667 3.9 0 -0.541667 
3.9 0 0.541667 4.33333 0.433333 -0.541667 4.33333 0.433333 0.541667 
4.76667 0 -0.541667 4.76667 0 0.541667 5.2 0.433333 -0.541667 
5.2 0.433333 0.541667 5.63333 0 -0.541667 5.63333 0 0.541667 
6.06667 0.433333 -0.541667 6.06667 0.433333 0.541667 6.5 0 -0.541667 
6.5 0 0.541667 6.93333 0.433333 -0.541667 6.93333 0.433333 0.541667 
7.36667 0 -0.541667 7.36667 0 0.541667 7.8 0.433333 -0.541667 
7.8 0.433333 0.541667 8.23333 0 -0.541667 8.23333 0 0.541667 
-0.224366 -0.541667 0.541667 -0.224366 -0.541667 0.969992 -0.224366 -0.541667 1.16667 
0.062132 0.15 1.16667 0.062132 0.15 1.31667 0.414214 1 1.31667 
0.414214 1 1.18238 0.062132 0.15 1.30572 0.414214 1 1.16667 
-0.224366 -0.541667 -0.969992 -0.224366 -0.541667 -0.541667 -0.224366 -0.541667 -1.16667 
0.062132 0.15 -1.16667 0.414214 1 -1.31667 0.062132 0.15 -1.31667 
0.414214 1 -1.18238 0.062132 0.15 -1.30572 0.414214 1 -1.16667 
0.12692 0.306413 0.541667 0.12692 0.306413 -0.541667 0.12692 0.306413 0.224366 
0.414214 1 -0.607138 0.414214 1 -0.541667 0.414214 1 -0.489387 
0.414214 1 0.541667 0.414214 1 0.607138 1.29167 1 0.541667 
1.29167 1 0.667237 2.5 1 0.75 6.29167 1 0.75 
6.29167 1 0.541667 1.29167 1 -0.667237 1.29167 1 -0.541667 
6.29167 1 -0.541667 6.29167 1 -0.75 2.5 1 -0.75 
1.29167 1 -0.378641 6.29167 1 0.252427 1.29167 1 -0.75 
1.29167 1 0.75 6.29167 2.5 0.75 6.29167 2.5 -0.75 
1.29167 2.5 -0.75 1.29167 2.5 0.75 
POLYGONS 191 969
3 0 1 2 
3 3 1 0 
3 3 4 1 
3 5 4 3 
3 5 6 4 
3 7 6 5 
3 7 8 6 
3 9 8 7 
3 9 10 8 
3 11 10 9 
3 11 12 10 
3 13 12 11 
3 13 14 12 
3 15 14 13 
3 15 16 14 
3 17 16 15 
3 17 18 16 
3 19 18 17 
3 19 20 18 
3 21 20 19 
3 21 22 20 
3 23 22 21 
3 23 24 22 
3 25 24 23 
3 25 26 24 
3 27 26 25 
3 27 28 26 
3 29 28 27 
3 29 30 28 
3 31 30 29 
3 31 32 30 
3 33 32 31 
3 33 34 32 
3 35 34 33 
3 35 36 34 
3 37 36 35 
3 37 38 36 
3 39 38 37 
3 39 40 38 
3 41 40 39 
3 41 42 40 
3 43 42 41 
3 43 44 42 
3 45 44 43 
3 45 46 44 
3 47 46 45 
3 47 48 46 
3 49 50 51 
4 48 47 52 50 
3 53 52 54 
3 55 50 53 
3 56 51 55 
3 54 52 57 
3 53 50 52 
3 55 51 50 
3 58 59 60 
3 60 59 61 
3 59 62 61 
3 61 62 63 
3 62 64 63 
3 63 64 65 
3 64 66 65 
3 65 66 67 
3 66 68 67 
3 67 68 69 
3 68 70 69 
3 69 70 71 
3 70 72 71 
3 71 72 73 
3 72 74 73 
3 73 74 75 
3 74 76 75 
3 75 76 77 
3 76 78 77 
3 77 78 79 
3 78 80 79 
3 79 80 81 
3 80 82 81 
3 81 82 83 
3 82 84 83 
3 83 84 85 
3 84 86 85 
3 85 86 87 
3 86 88 87 
3 87 88 89 
3 88 90 89 
3 89 90 91 
3 90 92 91 
3 91 92 93 
3 92 94 93 
3 93 94 95 
3 94 96 95 
3 95 96 97 
3 96 98 97 
3 97 98 99 
3 98 100 99 
3 99 100 101 
3 100 102 101 
3 101 102 103 
3 102 104 103 
3 103 104 105 
3 104 106 105 
3 107 108 109 
4 105 106 109 110 
3 111 110 112 
3 112 109 113 
3 113 108 114 
3 115 110 111 
3 110 109 112 
3 109 108 113 
4 50 49 116 48 
4 106 117 107 109 
3 118 119 120 
3 119 118 121 
3 121 122 119 
3 122 121 123 
3 123 124 122 
3 124 123 125 
3 125 126 124 
3 126 125 127 
3 127 128 126 
3 128 127 129 
3 129 130 128 
3 130 129 131 
3 131 132 130 
3 132 131 133 
3 133 134 132 
3 134 133 135 
3 135 136 134 
3 136 135 137 
3 137 138 136 
3 138 137 139 
3 139 140 138 
3 140 139 141 
3 141 142 140 
3 142 141 143 
3 143 144 142 
3 144 143 145 
3 145 146 144 
3 146 145 147 
3 147 148 146 
3 148 147 149 
3 149 150 148 
3 150 149 151 
3 151 152 150 
3 152 151 153 
3 153 154 152 
3 154 153 155 
3 155 117 154 
3 117 155 116 
3 116 107 117 
3 107 116 49 
3 2 156 157 
4 0 2 157 158 
28 57 52 47 45 43 41 39 37 35 33 31 29 27 25 23 21 19 17 15 13 11 9 7 5 3 0 158 159 
6 56 55 53 54 160 161 
3 56 161 162 
4 54 57 163 160 
4 56 162 164 51 
3 57 159 163 
3 58 165 166 
4 58 60 167 165 
28 60 61 63 65 67 69 71 73 75 77 79 81 83 85 87 89 91 93 95 97 99 101 103 105 110 115 168 167 
6 111 112 113 114 169 170 
3 114 171 169 
4 115 111 170 172 
4 108 173 171 114 
3 115 172 168 
47 2 1 4 6 8 10 12 14 16 18 20 22 24 26 28 30 32 34 36 38 40 42 44 46 48 116 155 153 151 149 147 145 143 141 139 137 135 133 131 129 127 125 123 121 118 174 156 
47 120 119 122 124 126 128 130 132 134 136 138 140 142 144 146 148 150 152 154 117 106 104 102 100 98 96 94 92 90 88 86 84 82 80 78 76 74 72 70 68 66 64 62 59 58 166 175 
3 120 175 176 
4 120 176 174 118 
26 166 165 167 168 172 170 169 171 173 177 178 179 180 181 164 162 161 160 163 159 158 157 156 174 176 175 
4 181 180 182 183 
5 51 184 185 186 49 
4 178 177 187 188 
5 107 189 190 191 108 
4 179 178 188 192 
4 49 193 189 107 
4 180 179 192 182 
3 49 186 193 
6 108 191 194 187 177 173 
6 51 164 181 183 195 184 
3 196 197 185 
3 196 198 197 
3 199 198 196 
3 199 194 198 
6 197 190 189 193 186 185 
5 197 198 194 191 190 
8 195 183 182 192 188 187 194 199 
5 199 196 185 184 195 

CELL_DATA 191
FIELD FieldData 2
OrigCellIdsA 1 191 int
0 1 2 3 4 5 6 7 8 
9 10 11 12 13 14 15 16 17 
18 19 20 21 22 23 24 25 26 
27 28 29 30 31 32 33 34 35 
36 37 38 39 40 41 42 43 44 
45 46 47 48 49 50 51 52 53 
54 55 56 57 58 59 60 61 62 
63 64 65 66 67 68 69 70 71 
72 73 74 75 76 77 78 79 80 
81 82 83 84 85 86 87 88 89 
90 91 92 93 94 95 96 97 98 
99 100 101 102 103 104 105 106 107 
108 109 110 111 112 113 114 115 116 
117 118 119 120 121 122 123 124 125 
126 127 128 129 130 131 132 133 134 
135 136 137 138 139 140 141 142 143 
144 145 146 147 148 149 150 151 152 
153 154 156 157 158 159 160 161 162 
163 165 166 167 168 169 170 171 174 
175 178 172 172 173 173 176 176 177 
177 164 155 -1 -1 -1 -1 -1 -1 
-1 -1 
OrigCellIdsB 1 191 int
-1 -1 -1 -1 -1 -1 -1 -1 -1 
-1 -1 -1 -1 -1 -1 -1 -1 -1 
-1 -1 -1 -1 -1 -1 -1 -1 -1 
-1 -1 -1 -1 -1 -1 -1 -1 -1 
-1 -1 -1 -1 -1 -1 -1 -1 -1 
-1 -1 -1 -1 -1 -1 -1 -1 -1 
-1 -1 -1 -1 -1 -1 -1 -1 -1 
-1 -1 -1 -1 -1 -1 -1 -1 -1 
-1 -1 -1 -1 -1 -1 -1 -1 -1 
-1 -1 -1 -1 -1 -1 -1 -1 -1 
-1 -1 -1 -1 -1 -1 -1 -1 -1 
-1 -1 -1 -1 -1 -1 -1 -1 -1 
-1 -1 -1 -1 -1 -1 -1 -1 -1 
-1 -1 -1 -1 -1 -1 -1 -1 -1 
-1 -1 -1 -1 -1 -1 -1 -1 -1 
-1 -1 -1 -1 -1 -1 -1 -1 -1 
-1 -1 -1 -1 -1 -1 -1 -1 -1 
-1 -1 -1 -1 -1 -1 -1 -1 -1 
-1 -1 -1 -1 -1 -1 -1 -1 -1 
-1 -1 -1 -1 -1 -1 -1 -1 -1 
-1 -1 -1 3 4 5 6 2 0 
7 1 
POINT_DATA 200
SCALARS RegionId vtkIdType
LOOKUP_TABLE default
0 0 0 0 0 0 0 0 0 
0 0 0 0 0 0 0 0 0 
0 0 0 0 0 0 0 0 0 
0 0 0 0 0 0 0 0 0 
0 0 0 0 0 0 0 0 0 
0 0 0 0 0 0 0 0 0 
0 0 0 0 0 0 0 0 0 
0 0 0 0 0 0 0 0 0 
0 0 0 0 0 0 0 0 0 
0 0 0 0 0 0 0 0 0 
0 0 0 0 0 0 0 0 0 
0 0 0 0 0 0 0 0 0 
0 0 0 0 0 0 0 0 0 
0 0 0 0 0 0 0 0 0 
0 0 0 0 0 0 0 0 0 
0 0 0 0 0 0 0 0 0 
0 0 0 0 0 0 0 0 0 
0 0 0 0 0 0 0 0 0 
0 0 0 0 0 0 0 0 0 
0 0 0 0 0 0 0 0 0 
0 0 0 0 0 0 0 0 0 
0 0 0 0 0 0 0 1 1 
1 1 
