# vtk DataFile Version 4.0
vtk output
ASCII
DATASET POLYDATA
POINTS 96 double
-0.466667 -0.541667 1.16667 -0.466667 -0.391667 0.541667 -0.466667 -0.541667 0.541667 
-0.466667 -0.391667 1.16667 -0.616667 -0.391667 0.541667 -0.616667 -0.391667 1.16667 
-0.616667 -0.541667 0.541667 -0.616667 -0.541667 1.16667 -1.55 -0.541667 0.541667 
-1.55 -0.541667 1.16667 -1.55 -0.391667 0.541667 -1.55 -0.391667 1.16667 
-1.7 -0.391667 0.541667 -1.7 -0.391667 1.16667 -1.7 -0.541667 0.541667 
-1.7 -0.541667 1.16667 -4.25 -0.541667 0.541667 0.541667 -0.541667 1.16667 
-4.25 1 0.541667 -4.25 -0.541667 1.16667 -4.25 1 1.16667 
-3.4 -0.541667 1.16667 -3.4 -0.541667 1.31667 -3.4 0.15 1.31667 
-4.25 -0.541667 1.31667 -4.25 1 1.31667 -3.4 0.15 1.16667 
-0.466667 -0.541667 -0.541667 -0.466667 -0.391667 -0.541667 -0.466667 -0.541667 -1.16667 
-0.466667 -0.391667 -1.16667 -0.616667 -0.391667 -0.541667 -0.616667 -0.391667 -1.16667 
-0.616667 -0.541667 -0.541667 -0.616667 -0.541667 -1.16667 -1.55 -0.541667 -0.541667 
-1.55 -0.541667 -1.16667 -1.55 -0.391667 -0.541667 -1.55 -0.391667 -1.16667 
-1.7 -0.391667 -0.541667 -1.7 -0.391667 -1.16667 -1.7 -0.541667 -0.541667 
-1.7 -0.541667 -1.16667 -4.25 -0.541667 -0.541667 0.541667 -0.541667 -1.16667 
-4.25 1 -0.541667 -4.25 1 -1.16667 -4.25 -0.541667 -1.16667 
-3.4 -0.541667 -1.16667 -3.4 0.15 -1.31667 -3.4 -0.541667 -1.31667 
-4.25 -0.541667 -1.31667 -4.25 1 -1.31667 -3.4 0.15 -1.16667 
-4.25 0.35 0.541667 -4.25 0.35 -0.541667 -0.433333 0 0.541667 
-0.866667 0.433333 -0.541667 -0.433333 0 -0.541667 -0.866667 0.433333 0.541667 
-1.3 0 -0.541667 -1.3 0 0.541667 -1.73333 0.433333 -0.541667 
-1.73333 0.433333 0.541667 -2.16667 0 -0.541667 -2.16667 0 0.541667 
-2.6 0.433333 -0.541667 -2.6 0.433333 0.541667 -3.03333 0 -0.541667 
-3.03333 0 0.541667 -3.46667 0.433333 -0.541667 -3.46667 0.433333 0.541667 
-3.9 0 -0.541667 -3.9 0 0.541667 0.541667 -0.541667 0.541667 
-0.15 0.15 1.16667 -1 1 1.16667 -1 1 0.742754 
-0.15 0.15 1.31667 -1 1 1.31667 -1 1 1.21493 
-0.15 0.15 1.29035 0.541667 -0.541667 -0.541667 -0.15 0.15 -1.16667 
-1 1 -0.742754 -1 1 -1.16667 -1 1 -1.31667 
-0.15 0.15 -1.31667 -1 1 -1.21493 -0.15 0.15 -1.29035 
-0.216667 0.216667 0.541667 -0.216667 0.216667 -0.541667 -1 1 0.541667 
-1 1 -0.541667 -0.216667 0.216667 2.98023e-08 -1 1 -0.286765 

POLYGONS 95 473
3 0 1 2 
3 3 1 0 
3 3 4 1 
3 5 4 3 
3 5 6 4 
3 7 6 5 
3 7 8 6 
3 9 8 7 
3 9 10 8 
3 11 10 9 
3 11 12 10 
3 13 12 11 
3 13 14 12 
3 15 14 13 
3 15 16 14 
3 0 2 17 
3 18 19 20 
4 16 15 21 19 
3 22 21 23 
3 24 19 22 
3 25 20 24 
3 23 21 26 
3 22 19 21 
3 24 20 19 
3 27 28 29 
3 29 28 30 
3 28 31 30 
3 30 31 32 
3 31 33 32 
3 32 33 34 
3 33 35 34 
3 34 35 36 
3 35 37 36 
3 36 37 38 
3 37 39 38 
3 38 39 40 
3 39 41 40 
3 40 41 42 
3 41 43 42 
3 44 27 29 
3 45 46 47 
4 42 43 47 48 
3 49 48 50 
3 50 47 51 
3 51 46 52 
3 53 48 49 
3 48 47 50 
3 47 46 51 
4 19 18 54 16 
4 43 55 45 47 
3 56 57 58 
3 57 56 59 
3 59 60 57 
3 60 59 61 
3 61 62 60 
3 62 61 63 
3 63 64 62 
3 64 63 65 
3 65 66 64 
3 66 65 67 
3 67 68 66 
3 68 67 69 
3 69 70 68 
3 70 69 71 
3 71 72 70 
3 72 71 73 
3 73 55 72 
3 55 73 54 
3 54 45 55 
3 45 54 18 
3 2 74 17 
12 17 75 26 21 15 13 11 9 7 5 3 0 
3 20 76 77 
6 25 24 22 23 78 79 
3 25 79 80 
4 23 26 81 78 
4 25 80 76 20 
3 26 75 81 
3 27 44 82 
12 29 30 32 34 36 38 40 42 48 53 83 44 
3 46 84 85 
6 49 50 51 52 86 87 
3 52 88 86 
4 53 49 87 89 
4 46 85 88 52 
3 53 89 83 
21 2 1 4 6 8 10 12 14 16 54 73 71 69 67 65 63 61 59 56 90 74 
21 82 91 58 57 60 62 64 66 68 70 72 55 43 41 39 37 35 33 31 28 27 
4 20 77 92 18 
4 45 93 84 46 
3 58 91 94 
4 58 94 90 56 
4 18 95 93 45 
3 18 92 95 
24 88 85 84 93 95 92 77 76 80 79 78 81 75 17 74 90 94 91 82 44 83 89 87 86 

CELL_DATA 95
FIELD FieldData 2
OrigCellIdsA 1 95 int
0 1 2 3 4 5 6 7 8 
9 10 11 12 13 14 17 19 22 
24 25 26 30 31 32 36 37 38 
39 40 41 42 43 44 45 46 47 
48 49 50 53 55 57 60 61 62 
66 67 68 74 77 80 81 82 83 
84 85 86 87 88 89 90 91 92 
93 94 95 96 97 98 99 16 18 
20 23 27 29 33 35 52 54 56 
59 63 65 69 71 72 73 75 76 
78 79 100 101 -1 
OrigCellIdsB 1 95 int
-1 -1 -1 -1 -1 -1 -1 -1 -1 
-1 -1 -1 -1 -1 -1 -1 -1 -1 
-1 -1 -1 -1 -1 -1 -1 -1 -1 
-1 -1 -1 -1 -1 -1 -1 -1 -1 
-1 -1 -1 -1 -1 -1 -1 -1 -1 
-1 -1 -1 -1 -1 -1 -1 -1 -1 
-1 -1 -1 -1 -1 -1 -1 -1 -1 
-1 -1 -1 -1 -1 -1 -1 -1 -1 
-1 -1 -1 -1 -1 -1 -1 -1 -1 
-1 -1 -1 -1 -1 -1 -1 -1 -1 
-1 -1 -1 -1 0 
POINT_DATA 96
SCALARS RegionId vtkIdType
LOOKUP_TABLE default
0 0 0 0 0 0 0 0 0 
0 0 0 0 0 0 0 0 0 
0 0 0 0 0 0 0 0 0 
0 0 0 0 0 0 0 0 0 
0 0 0 0 0 0 0 0 0 
0 0 0 0 0 0 0 0 0 
0 0 0 0 0 0 0 0 0 
0 0 0 0 0 0 0 0 0 
0 0 0 0 0 0 0 0 0 
0 0 0 0 0 0 0 0 0 
0 0 0 0 0 0 
