# vtk DataFile Version 4.0
vtk output
ASCII
DATASET POLYDATA
POINTS 252 double
0.466667 -0.541667 1.16667 0.466667 -0.391667 0.541667 0.466667 -0.541667 0.541667 
0.466667 -0.391667 1.16667 0.616667 -0.391667 0.541667 0.616667 -0.391667 1.16667 
0.616667 -0.541667 0.541667 0.616667 -0.541667 1.16667 1.55 -0.541667 0.541667 
1.55 -0.541667 1.16667 1.55 -0.391667 0.541667 1.55 -0.391667 1.16667 
1.7 -0.391667 0.541667 1.7 -0.391667 1.16667 1.7 -0.541667 0.541667 
1.7 -0.541667 1.16667 2.63333 -0.541667 0.541667 2.63333 -0.541667 1.16667 
2.63333 -0.391667 0.541667 2.63333 -0.391667 1.16667 2.78333 -0.391667 0.541667 
2.78333 -0.391667 1.16667 2.78333 -0.541667 0.541667 2.78333 -0.541667 1.16667 
3.71667 -0.541667 0.541667 3.71667 -0.541667 1.16667 3.71667 -0.391667 0.541667 
3.71667 -0.391667 1.16667 3.86667 -0.391667 0.541667 3.86667 -0.391667 1.16667 
3.86667 -0.541667 0.541667 3.86667 -0.541667 1.16667 4.8 -0.541667 0.541667 
4.8 -0.541667 1.16667 4.8 -0.391667 0.541667 4.8 -0.391667 1.16667 
4.95 -0.391667 0.541667 4.95 -0.391667 1.16667 4.95 -0.541667 0.541667 
4.95 -0.541667 1.16667 5.88333 -0.541667 0.541667 5.88333 -0.541667 1.16667 
5.88333 -0.391667 0.541667 5.88333 -0.391667 1.16667 6.03333 -0.391667 0.541667 
6.03333 -0.391667 1.16667 6.03333 -0.541667 0.541667 6.03333 -0.541667 1.16667 
6.96667 -0.541667 0.541667 6.96667 -0.541667 1.16667 6.96667 -0.391667 0.541667 
6.96667 -0.391667 1.16667 7.11667 -0.391667 0.541667 7.11667 -0.391667 1.16667 
7.11667 -0.541667 0.541667 7.11667 -0.541667 1.16667 8.05 -0.541667 0.541667 
8.05 -0.541667 1.16667 8.05 -0.391667 0.541667 8.05 -0.391667 1.16667 
8.2 -0.391667 0.541667 8.2 -0.391667 1.16667 8.2 -0.541667 0.541667 
8.2 -0.541667 1.16667 9.13333 -0.541667 0.541667 9.13333 -0.541667 1.16667 
9.13333 -0.391667 0.541667 9.13333 -0.391667 1.16667 9.28333 -0.391667 0.541667 
9.28333 -0.391667 1.16667 9.28333 -0.541667 0.541667 9.28333 -0.541667 1.16667 
10.2167 -0.541667 0.541667 10.2167 -0.541667 1.16667 10.2167 -0.391667 0.541667 
10.2167 -0.391667 1.16667 10.3667 -0.391667 0.541667 10.3667 -0.391667 1.16667 
10.3667 -0.541667 0.541667 10.3667 -0.541667 1.16667 11.375 -0.541667 0.541667 
11.375 -0.541667 1.16667 -0.541667 -0.541667 1.16667 11.375 1 0.541667 
11.375 0.15 1.16667 11.375 1 1.16667 11.375 1 1.31667 
11.375 0.15 1.31667 0.466667 -0.541667 -0.541667 0.466667 -0.391667 -0.541667 
0.466667 -0.541667 -1.16667 0.466667 -0.391667 -1.16667 0.616667 -0.391667 -0.541667 
0.616667 -0.391667 -1.16667 0.616667 -0.541667 -0.541667 0.616667 -0.541667 -1.16667 
1.55 -0.541667 -0.541667 1.55 -0.541667 -1.16667 1.55 -0.391667 -0.541667 
1.55 -0.391667 -1.16667 1.7 -0.391667 -0.541667 1.7 -0.391667 -1.16667 
1.7 -0.541667 -0.541667 1.7 -0.541667 -1.16667 2.63333 -0.541667 -0.541667 
2.63333 -0.541667 -1.16667 2.63333 -0.391667 -0.541667 2.63333 -0.391667 -1.16667 
2.78333 -0.391667 -0.541667 2.78333 -0.391667 -1.16667 2.78333 -0.541667 -0.541667 
2.78333 -0.541667 -1.16667 3.71667 -0.541667 -0.541667 3.71667 -0.541667 -1.16667 
3.71667 -0.391667 -0.541667 3.71667 -0.391667 -1.16667 3.86667 -0.391667 -0.541667 
3.86667 -0.391667 -1.16667 3.86667 -0.541667 -0.541667 3.86667 -0.541667 -1.16667 
4.8 -0.541667 -0.541667 4.8 -0.541667 -1.16667 4.8 -0.391667 -0.541667 
4.8 -0.391667 -1.16667 4.95 -0.391667 -0.541667 4.95 -0.391667 -1.16667 
4.95 -0.541667 -0.541667 4.95 -0.541667 -1.16667 5.88333 -0.541667 -0.541667 
5.88333 -0.541667 -1.16667 5.88333 -0.391667 -0.541667 5.88333 -0.391667 -1.16667 
6.03333 -0.391667 -0.541667 6.03333 -0.391667 -1.16667 6.03333 -0.541667 -0.541667 
6.03333 -0.541667 -1.16667 6.96667 -0.541667 -0.541667 6.96667 -0.541667 -1.16667 
6.96667 -0.391667 -0.541667 6.96667 -0.391667 -1.16667 7.11667 -0.391667 -0.541667 
7.11667 -0.391667 -1.16667 7.11667 -0.541667 -0.541667 7.11667 -0.541667 -1.16667 
8.05 -0.541667 -0.541667 8.05 -0.541667 -1.16667 8.05 -0.391667 -0.541667 
8.05 -0.391667 -1.16667 8.2 -0.391667 -0.541667 8.2 -0.391667 -1.16667 
8.2 -0.541667 -0.541667 8.2 -0.541667 -1.16667 9.13333 -0.541667 -0.541667 
9.13333 -0.541667 -1.16667 9.13333 -0.391667 -0.541667 9.13333 -0.391667 -1.16667 
9.28333 -0.391667 -0.541667 9.28333 -0.391667 -1.16667 9.28333 -0.541667 -0.541667 
9.28333 -0.541667 -1.16667 10.2167 -0.541667 -0.541667 10.2167 -0.541667 -1.16667 
10.2167 -0.391667 -0.541667 10.2167 -0.391667 -1.16667 10.3667 -0.391667 -0.541667 
10.3667 -0.391667 -1.16667 10.3667 -0.541667 -0.541667 10.3667 -0.541667 -1.16667 
11.375 -0.541667 -0.541667 11.375 -0.541667 -1.16667 -0.541667 -0.541667 -1.16667 
11.375 1 -0.541667 11.375 1 -1.16667 11.375 0.15 -1.16667 
11.375 0.15 -1.31667 11.375 1 -1.31667 11.375 0.325 0.541667 
11.375 0.325 -0.541667 0.433333 0 0.541667 0.866667 0.433333 -0.541667 
0.433333 0 -0.541667 0.866667 0.433333 0.541667 1.3 0 -0.541667 
1.3 0 0.541667 1.73333 0.433333 -0.541667 1.73333 0.433333 0.541667 
2.16667 0 -0.541667 2.16667 0 0.541667 2.6 0.433333 -0.541667 
2.6 0.433333 0.541667 3.03333 0 -0.541667 3.03333 0 0.541667 
3.46667 0.433333 -0.541667 3.46667 0.433333 0.541667 3.9 0 -0.541667 
3.9 0 0.541667 4.33333 0.433333 -0.541667 4.33333 0.433333 0.541667 
4.76667 0 -0.541667 4.76667 0 0.541667 5.2 0.433333 -0.541667 
5.2 0.433333 0.541667 5.63333 0 -0.541667 5.63333 0 0.541667 
6.06667 0.433333 -0.541667 6.06667 0.433333 0.541667 6.5 0 -0.541667 
6.5 0 0.541667 6.93333 0.433333 -0.541667 6.93333 0.433333 0.541667 
7.36667 0 -0.541667 7.36667 0 0.541667 7.8 0.433333 -0.541667 
7.8 0.433333 0.541667 8.23333 0 -0.541667 8.23333 0 0.541667 
8.66667 0.433333 -0.541667 8.66667 0.433333 0.541667 9.1 0 -0.541667 
9.1 0 0.541667 9.53333 0.433333 -0.541667 9.53333 0.433333 0.541667 
9.96667 0 -0.541667 9.96667 0 0.541667 10.4 0.433333 -0.541667 
10.4 0.433333 0.541667 10.8333 0 -0.541667 10.8333 0 0.541667 
11.2667 0.433333 -0.541667 11.2667 0.433333 0.541667 -0.541667 -0.541667 0.541667 
0.15 0.15 1.16667 1 1 1.16667 1 1 0.622523 
0.15 0.15 1.31667 1 1 1.31667 1 1 1.18607 
0.15 0.15 1.30796 -0.541667 -0.541667 -0.541667 0.15 0.15 -1.16667 
1 1 -0.622523 1 1 -1.16667 1 1 -1.31667 
0.15 0.15 -1.31667 1 1 -1.18607 0.15 0.15 -1.30796 
0.216667 0.216667 0.541667 0.216667 0.216667 -0.541667 1 1 0.541667 
1 1 -0.541667 0.216667 0.216667 2.98023e-08 1 1 -0.446429 

POLYGONS 249 1247
3 0 1 2 
3 3 1 0 
3 3 4 1 
3 5 4 3 
3 5 6 4 
3 7 6 5 
3 7 8 6 
3 9 8 7 
3 9 10 8 
3 11 10 9 
3 11 12 10 
3 13 12 11 
3 13 14 12 
3 15 14 13 
3 15 16 14 
3 17 16 15 
3 17 18 16 
3 19 18 17 
3 19 20 18 
3 21 20 19 
3 21 22 20 
3 23 22 21 
3 23 24 22 
3 25 24 23 
3 25 26 24 
3 27 26 25 
3 27 28 26 
3 29 28 27 
3 29 30 28 
3 31 30 29 
3 31 32 30 
3 33 32 31 
3 33 34 32 
3 35 34 33 
3 35 36 34 
3 37 36 35 
3 37 38 36 
3 39 38 37 
3 39 40 38 
3 41 40 39 
3 41 42 40 
3 43 42 41 
3 43 44 42 
3 45 44 43 
3 45 46 44 
3 47 46 45 
3 47 48 46 
3 49 48 47 
3 49 50 48 
3 51 50 49 
3 51 52 50 
3 53 52 51 
3 53 54 52 
3 55 54 53 
3 55 56 54 
3 57 56 55 
3 57 58 56 
3 59 58 57 
3 59 60 58 
3 61 60 59 
3 61 62 60 
3 63 62 61 
3 63 64 62 
3 65 64 63 
3 65 66 64 
3 67 66 65 
3 67 68 66 
3 69 68 67 
3 69 70 68 
3 71 70 69 
3 71 72 70 
3 73 72 71 
3 73 74 72 
3 75 74 73 
3 75 76 74 
3 77 76 75 
3 77 78 76 
3 79 78 77 
3 79 80 78 
3 81 80 79 
3 0 2 82 
4 83 81 84 85 
3 86 85 87 
3 87 85 84 
3 88 89 90 
3 90 89 91 
3 89 92 91 
3 91 92 93 
3 92 94 93 
3 93 94 95 
3 94 96 95 
3 95 96 97 
3 96 98 97 
3 97 98 99 
3 98 100 99 
3 99 100 101 
3 100 102 101 
3 101 102 103 
3 102 104 103 
3 103 104 105 
3 104 106 105 
3 105 106 107 
3 106 108 107 
3 107 108 109 
3 108 110 109 
3 109 110 111 
3 110 112 111 
3 111 112 113 
3 112 114 113 
3 113 114 115 
3 114 116 115 
3 115 116 117 
3 116 118 117 
3 117 118 119 
3 118 120 119 
3 119 120 121 
3 120 122 121 
3 121 122 123 
3 122 124 123 
3 123 124 125 
3 124 126 125 
3 125 126 127 
3 126 128 127 
3 127 128 129 
3 128 130 129 
3 129 130 131 
3 130 132 131 
3 131 132 133 
3 132 134 133 
3 133 134 135 
3 134 136 135 
3 135 136 137 
3 136 138 137 
3 137 138 139 
3 138 140 139 
3 139 140 141 
3 140 142 141 
3 141 142 143 
3 142 144 143 
3 143 144 145 
3 144 146 145 
3 145 146 147 
3 146 148 147 
3 147 148 149 
3 148 150 149 
3 149 150 151 
3 150 152 151 
3 151 152 153 
3 152 154 153 
3 153 154 155 
3 154 156 155 
3 155 156 157 
3 156 158 157 
3 157 158 159 
3 158 160 159 
3 159 160 161 
3 160 162 161 
3 161 162 163 
3 162 164 163 
3 163 164 165 
3 164 166 165 
3 165 166 167 
3 166 168 167 
3 167 168 169 
3 170 88 90 
4 169 171 172 173 
3 174 172 175 
3 173 172 174 
4 81 83 176 80 
4 168 177 171 169 
3 178 179 180 
3 179 178 181 
3 181 182 179 
3 182 181 183 
3 183 184 182 
3 184 183 185 
3 185 186 184 
3 186 185 187 
3 187 188 186 
3 188 187 189 
3 189 190 188 
3 190 189 191 
3 191 192 190 
3 192 191 193 
3 193 194 192 
3 194 193 195 
3 195 196 194 
3 196 195 197 
3 197 198 196 
3 198 197 199 
3 199 200 198 
3 200 199 201 
3 201 202 200 
3 202 201 203 
3 203 204 202 
3 204 203 205 
3 205 206 204 
3 206 205 207 
3 207 208 206 
3 208 207 209 
3 209 210 208 
3 210 209 211 
3 211 212 210 
3 212 211 213 
3 213 214 212 
3 214 213 215 
3 215 216 214 
3 216 215 217 
3 217 218 216 
3 218 217 219 
3 219 220 218 
3 220 219 221 
3 221 222 220 
3 222 221 223 
3 223 224 222 
3 224 223 225 
3 225 226 224 
3 226 225 227 
3 227 228 226 
3 228 227 229 
3 229 177 228 
3 177 229 176 
3 176 171 177 
3 171 176 83 
3 2 230 82 
44 82 231 84 81 79 77 75 73 71 69 67 65 63 61 59 57 55 53 51 49 47 45 43 41 39 37 35 33 31 29 27 25 23 21 19 17 15 13 11 9 7 5 3 0 
3 85 232 233 
4 86 87 234 235 
3 86 235 236 
4 87 84 237 234 
4 86 236 232 85 
3 84 231 237 
3 88 170 238 
44 90 91 93 95 97 99 101 103 105 107 109 111 113 115 117 119 121 123 125 127 129 131 133 135 137 139 141 143 145 147 149 151 153 155 157 159 161 163 165 167 169 173 239 170 
3 172 240 241 
4 174 175 242 243 
3 175 244 242 
4 173 174 243 245 
4 172 241 244 175 
3 173 245 239 
70 2 1 4 6 8 10 12 14 16 18 20 22 24 26 28 30 32 34 36 38 40 42 44 46 48 50 52 54 56 58 60 62 64 66 68 70 72 74 76 78 80 176 229 227 225 223 221 219 217 215 213 211 209 207 205 203 201 199 197 195 193 191 189 187 185 183 181 178 246 230 
70 238 247 180 179 182 184 186 188 190 192 194 196 198 200 202 204 206 208 210 212 214 216 218 220 222 224 226 228 177 168 166 164 162 160 158 156 154 152 150 148 146 144 142 140 138 136 134 132 130 128 126 124 122 120 118 116 114 112 110 108 106 104 102 100 98 96 94 92 89 88 
4 85 233 248 83 
4 171 249 240 172 
3 180 247 250 
4 180 250 246 178 
4 83 251 249 171 
3 83 248 251 
24 238 170 239 245 243 242 244 241 240 249 251 248 233 232 236 235 234 237 231 82 230 246 250 247 

CELL_DATA 249
FIELD FieldData 2
OrigCellIdsA 1 249 int
0 1 2 3 4 5 6 7 8 
9 10 11 12 13 14 15 16 17 
18 19 20 21 22 23 24 25 26 
27 28 29 30 31 32 33 34 35 
36 37 38 39 40 41 42 43 44 
45 46 47 48 49 50 51 52 53 
54 55 56 57 58 59 60 61 62 
63 64 65 66 67 68 69 70 71 
72 73 74 75 76 77 78 79 82 
86 88 92 96 97 98 99 100 101 
102 103 104 105 106 107 108 109 110 
111 112 113 114 115 116 117 118 119 
120 121 122 123 124 125 126 127 128 
129 130 131 132 133 134 135 136 137 
138 139 140 141 142 143 144 145 146 
147 148 149 150 151 152 153 154 155 
156 157 158 159 160 161 162 163 164 
165 166 167 168 169 170 171 172 173 
174 175 178 181 184 188 194 197 200 
201 202 203 204 205 206 207 208 209 
210 211 212 213 214 215 216 217 218 
219 220 221 222 223 224 225 226 227 
228 229 230 231 232 233 234 235 236 
237 238 239 240 241 242 243 244 245 
246 247 248 249 250 251 252 253 81 
83 84 87 89 91 93 95 177 179 
180 183 185 187 189 191 192 193 195 
196 198 199 254 255 -1 
OrigCellIdsB 1 249 int
-1 -1 -1 -1 -1 -1 -1 -1 -1 
-1 -1 -1 -1 -1 -1 -1 -1 -1 
-1 -1 -1 -1 -1 -1 -1 -1 -1 
-1 -1 -1 -1 -1 -1 -1 -1 -1 
-1 -1 -1 -1 -1 -1 -1 -1 -1 
-1 -1 -1 -1 -1 -1 -1 -1 -1 
-1 -1 -1 -1 -1 -1 -1 -1 -1 
-1 -1 -1 -1 -1 -1 -1 -1 -1 
-1 -1 -1 -1 -1 -1 -1 -1 -1 
-1 -1 -1 -1 -1 -1 -1 -1 -1 
-1 -1 -1 -1 -1 -1 -1 -1 -1 
-1 -1 -1 -1 -1 -1 -1 -1 -1 
-1 -1 -1 -1 -1 -1 -1 -1 -1 
-1 -1 -1 -1 -1 -1 -1 -1 -1 
-1 -1 -1 -1 -1 -1 -1 -1 -1 
-1 -1 -1 -1 -1 -1 -1 -1 -1 
-1 -1 -1 -1 -1 -1 -1 -1 -1 
-1 -1 -1 -1 -1 -1 -1 -1 -1 
-1 -1 -1 -1 -1 -1 -1 -1 -1 
-1 -1 -1 -1 -1 -1 -1 -1 -1 
-1 -1 -1 -1 -1 -1 -1 -1 -1 
-1 -1 -1 -1 -1 -1 -1 -1 -1 
-1 -1 -1 -1 -1 -1 -1 -1 -1 
-1 -1 -1 -1 -1 -1 -1 -1 -1 
-1 -1 -1 -1 -1 -1 -1 -1 -1 
-1 -1 -1 -1 -1 -1 -1 -1 -1 
-1 -1 -1 -1 -1 -1 -1 -1 -1 
-1 -1 -1 -1 -1 0 
POINT_DATA 252
SCALARS RegionId vtkIdType
LOOKUP_TABLE default
0 0 0 0 0 0 0 0 0 
0 0 0 0 0 0 0 0 0 
0 0 0 0 0 0 0 0 0 
0 0 0 0 0 0 0 0 0 
0 0 0 0 0 0 0 0 0 
0 0 0 0 0 0 0 0 0 
0 0 0 0 0 0 0 0 0 
0 0 0 0 0 0 0 0 0 
0 0 0 0 0 0 0 0 0 
0 0 0 0 0 0 0 0 0 
0 0 0 0 0 0 0 0 0 
0 0 0 0 0 0 0 0 0 
0 0 0 0 0 0 0 0 0 
0 0 0 0 0 0 0 0 0 
0 0 0 0 0 0 0 0 0 
0 0 0 0 0 0 0 0 0 
0 0 0 0 0 0 0 0 0 
0 0 0 0 0 0 0 0 0 
0 0 0 0 0 0 0 0 0 
0 0 0 0 0 0 0 0 0 
0 0 0 0 0 0 0 0 0 
0 0 0 0 0 0 0 0 0 
0 0 0 0 0 0 0 0 0 
0 0 0 0 0 0 0 0 0 
0 0 0 0 0 0 0 0 0 
0 0 0 0 0 0 0 0 0 
0 0 0 0 0 0 0 0 0 
0 0 0 0 0 0 0 0 0 

