# vtk DataFile Version 4.0
vtk output
ASCII
DATASET POLYDATA
POINTS 98 double
0.46666667 -0.54166669 0.54166663 0.46666667 -0.39166668 0.54166663 0.46666667 -0.54166669 1.16666663 0.46666667 -0.39166668 1.16666663 0.61666667 -0.39166668 0.54166663 0.61666667 -0.39166668 1.16666663 0.61666667 -0.54166669 0.54166663 0.61666667 -0.54166669 1.16666663 1.54999995 -0.54166669 0.54166663 1.54999995 -0.54166669 1.16666663 1.54999995 -0.39166668 0.54166663 1.54999995 -0.39166668 1.16666663 1.70000005 -0.39166668 0.54166663 1.70000005 -0.39166668 1.16666663 1.70000005 -0.54166669 0.54166663 1.70000005 -0.54166669 1.16666663 4.25000000 -0.54166669 0.54166663 -0.54166669 -0.54166669 1.16666663 3.40000010 -0.54166669 1.16666663 3.40000010 0.15000001 1.16666663 4.25000000 1.00000000 1.16666663 4.25000000 -0.54166669 1.16666663 4.25000000 1.00000000 0.54166663 3.40000010 0.15000001 1.31666660 3.40000010 -0.54166669 1.31666660 4.25000000 -0.54166669 1.31666660 4.25000000 1.00000000 1.31666660 0.46666667 -0.54166669 -1.16666663 0.46666667 -0.39166668 -0.54166663 0.46666667 -0.54166669 -0.54166663 0.46666667 -0.39166668 -1.16666663 0.61666667 -0.39166668 -0.54166663 0.61666667 -0.39166668 -1.16666663 0.61666667 -0.54166669 -0.54166663 0.61666667 -0.54166669 -1.16666663 1.54999995 -0.54166669 -0.54166663 1.54999995 -0.54166669 -1.16666663 1.54999995 -0.39166668 -0.54166663 1.54999995 -0.39166668 -1.16666663 1.70000005 -0.39166668 -0.54166663 1.70000005 -0.39166668 -1.16666663 1.70000005 -0.54166669 -0.54166663 1.70000005 -0.54166669 -1.16666663 4.25000000 -0.54166669 -0.54166663 -0.54166669 -0.54166669 -1.16666663 3.40000010 0.15000001 -1.16666663 3.40000010 -0.54166669 -1.16666663 4.25000000 -0.54166669 -1.16666663 4.25000000 1.00000000 -1.16666663 4.25000000 1.00000000 -0.54166663 3.40000010 -0.54166669 -1.31666660 3.40000010 0.15000001 -1.31666660 4.25000000 -0.54166669 -1.31666660 4.25000000 1.00000000 -1.31666660 0.43333334 0.00000000 0.54166663 0.86666667 0.43333334 0.54166663 1.29999995 0.00000000 0.54166663 1.73333335 0.43333334 0.54166663 2.16666675 0.00000000 0.54166663 3.03333330 0.00000000 0.54166663 2.59999990 0.43333334 0.54166663 3.46666670 0.43333334 0.54166663 3.90000010 0.00000000 0.54166663 4.25000000 0.34999999 0.54166663 0.86666667 0.43333334 -0.54166663 0.43333334 0.00000000 -0.54166663 1.29999995 0.00000000 -0.54166663 2.16666675 0.00000000 -0.54166663 1.73333335 0.43333334 -0.54166663 3.03333330 0.00000000 -0.54166663 3.90000010 0.00000000 -0.54166663 3.46666670 0.43333334 -0.54166663 4.25000000 0.34999999 -0.54166663 2.59999990 0.43333334 -0.54166663 -0.54166669 -0.54166669 0.54166663 -0.09171147 -0.09171147 1.16666663 0.15000001 0.15000001 1.16666663 1.00000000 1.00000000 0.74275359 1.00000000 1.00000000 1.16666663 1.00000000 1.00000000 1.31666660 0.15000001 0.15000001 1.31666660 1.00000000 1.00000000 1.21492749 0.15000001 0.15000001 1.29034525 -0.54166669 -0.54166669 -0.54166663 -0.09171147 -0.09171147 -1.16666663 0.15000001 0.15000001 -1.16666663 1.00000000 1.00000000 -1.16666663 1.00000000 1.00000000 -0.74275359 0.15000001 0.15000001 -1.31666660 1.00000000 1.00000000 -1.31666660 1.00000000 1.00000000 -1.21492749 0.15000001 0.15000001 -1.29034525 0.21666667 0.21666667 0.54166663 0.21666667 0.21666667 -0.54166663 1.00000000 1.00000000 0.54166663 1.00000000 1.00000000 -0.54166663 0.21666667 0.21666667 -0.00000000 1.00000000 1.00000000 -0.28676468
POLYGONS 121 555
3 0 1 2 
3 2 1 3 
3 1 4 3 
3 3 4 5 
3 4 6 5 
3 5 6 7 
3 6 8 7 
3 7 8 9 
3 8 10 9 
3 9 10 11 
3 10 12 11 
3 11 12 13 
3 12 14 13 
3 13 14 15 
3 14 16 15 
3 17 0 2 
4 5 7 9 11 
4 13 15 18 19 
3 20 21 22 
4 21 18 15 16 
3 23 18 24 
3 24 21 25 
3 25 20 26 
3 19 18 23 
3 18 21 24 
3 21 20 25 
3 27 28 29 
3 30 28 27 
3 30 31 28 
3 32 31 30 
3 32 33 31 
3 34 33 32 
3 34 35 33 
3 36 35 34 
3 36 37 35 
3 38 37 36 
3 38 39 37 
3 40 39 38 
3 40 41 39 
3 42 41 40 
3 42 43 41 
3 27 29 44 
4 40 45 46 42 
4 38 36 34 32 
3 47 48 49 
4 46 47 43 42 
3 50 46 51 
3 52 47 50 
3 53 48 52 
3 51 46 45 
3 50 47 46 
3 52 48 47 
4 54 55 4 1 
6 55 56 10 8 6 4 
5 56 57 58 12 10 
5 58 59 16 14 12 
3 58 60 59 
4 59 61 62 16 
3 62 63 16 
4 28 31 64 65 
6 31 33 35 37 66 64 
5 37 39 67 68 66 
5 39 41 43 69 67 
4 43 70 71 69 
3 43 72 70 
3 69 73 67 
4 16 63 22 21 
4 47 49 72 43 
3 65 64 54 
3 55 54 64 
3 64 66 55 
3 56 55 66 
3 66 68 56 
3 57 56 68 
3 68 67 57 
3 58 57 67 
3 67 73 58 
3 60 58 73 
3 73 69 60 
3 59 60 69 
3 69 71 59 
3 61 59 71 
3 71 70 61 
3 62 61 70 
3 70 72 62 
3 63 62 72 
3 72 49 63 
3 22 63 49 
3 17 74 0 
4 3 75 17 2 
7 76 75 3 5 11 13 19 
3 77 78 20 
4 23 26 79 80 
4 23 24 25 26 
3 81 79 26 
4 80 82 19 23 
4 20 78 81 26 
3 82 76 19 
3 83 44 29 
7 40 38 32 30 84 85 45 
4 44 84 30 27 
3 86 87 48 
4 51 53 52 50 
4 51 88 89 53 
3 89 90 53 
4 91 88 51 45 
4 53 90 86 48 
3 85 91 45 
5 74 92 54 1 0 
5 28 65 93 83 29 
4 22 94 77 20 
4 48 87 95 49 
3 96 93 65 
4 54 92 96 65 
4 49 95 97 22 
3 97 94 22 
5 82 80 79 92 76 
5 92 74 17 75 76 
14 79 81 78 77 94 97 95 87 86 90 89 93 96 92 
5 89 88 91 85 93 
5 85 84 44 83 93 

CELL_DATA 121
FIELD FieldData 2
OrigCellIdsA 1 121 int
0 1 2 3 4 5 6 7 8 
9 10 11 12 13 14 17 20 21 
22 25 27 28 29 33 34 35 39 
40 41 42 43 44 45 46 47 48 
49 50 51 52 53 56 57 59 61 
63 66 67 68 72 73 74 80 81 
82 83 84 85 86 88 89 90 91 
92 93 94 96 99 102 103 104 105 
106 107 108 109 110 111 112 113 114 
115 116 117 118 119 120 121 16 18 
19 23 26 26 30 32 36 38 55 
58 60 62 65 65 69 71 75 77 
79 87 97 98 100 101 122 123 -1 
-1 -1 -1 -1 
OrigCellIdsB 1 121 int
-1 -1 -1 -1 -1 -1 -1 -1 -1 
-1 -1 -1 -1 -1 -1 -1 -1 -1 
-1 -1 -1 -1 -1 -1 -1 -1 -1 
-1 -1 -1 -1 -1 -1 -1 -1 -1 
-1 -1 -1 -1 -1 -1 -1 -1 -1 
-1 -1 -1 -1 -1 -1 -1 -1 -1 
-1 -1 -1 -1 -1 -1 -1 -1 -1 
-1 -1 -1 -1 -1 -1 -1 -1 -1 
-1 -1 -1 -1 -1 -1 -1 -1 -1 
-1 -1 -1 -1 -1 -1 -1 -1 -1 
-1 -1 -1 -1 -1 -1 -1 -1 -1 
-1 -1 -1 -1 -1 -1 -1 -1 -1 
-1 -1 -1 -1 -1 -1 -1 -1 0 
0 0 0 0 
POINT_DATA 98
SCALARS RegionId vtkIdType
LOOKUP_TABLE default
0 0 0 0 0 0 0 0 0 
0 0 0 0 0 0 0 0 0 
0 0 0 0 0 0 0 0 0 
0 0 0 0 0 0 0 0 0 
0 0 0 0 0 0 0 0 0 
0 0 0 0 0 0 0 0 0 
0 0 0 0 0 0 0 0 0 
0 0 0 0 0 0 0 0 0 
0 0 0 0 0 0 0 0 0 
0 0 0 0 0 0 0 0 0 
0 0 0 0 0 0 0 0 
