# vtk DataFile Version 4.0
vtk output
ASCII
DATASET POLYDATA
POINTS 96 double
0.46666667 -0.54166669 0.54166663 0.46666667 -0.39166668 0.54166663 0.46666667 -0.54166669 1.16666663 0.46666667 -0.39166668 1.16666663 0.61666667 -0.39166668 0.54166663 0.61666667 -0.39166668 1.16666663 0.61666667 -0.54166669 0.54166663 0.61666667 -0.54166669 1.16666663 1.54999995 -0.54166669 0.54166663 1.54999995 -0.54166669 1.16666663 1.54999995 -0.39166668 0.54166663 1.54999995 -0.39166668 1.16666663 1.70000005 -0.39166668 0.54166663 1.70000005 -0.39166668 1.16666663 1.70000005 -0.54166669 0.54166663 1.70000005 -0.54166669 1.16666663 4.25000000 -0.54166669 0.54166663 -0.54166669 -0.54166669 1.16666663 4.25000000 -0.54166669 1.16666663 3.40000010 -0.54166669 1.16666663 4.25000000 1.00000000 1.16666663 4.25000000 1.00000000 0.54166663 3.40000010 0.15000001 1.31666660 3.40000010 -0.54166669 1.31666660 4.25000000 -0.54166669 1.31666660 4.25000000 1.00000000 1.31666660 3.40000010 0.15000001 1.16666663 0.46666667 -0.54166669 -1.16666663 0.46666667 -0.39166668 -0.54166663 0.46666667 -0.54166669 -0.54166663 0.46666667 -0.39166668 -1.16666663 0.61666667 -0.39166668 -0.54166663 0.61666667 -0.39166668 -1.16666663 0.61666667 -0.54166669 -0.54166663 0.61666667 -0.54166669 -1.16666663 1.54999995 -0.54166669 -0.54166663 1.54999995 -0.54166669 -1.16666663 1.54999995 -0.39166668 -0.54166663 1.54999995 -0.39166668 -1.16666663 1.70000005 -0.39166668 -0.54166663 1.70000005 -0.39166668 -1.16666663 1.70000005 -0.54166669 -0.54166663 1.70000005 -0.54166669 -1.16666663 4.25000000 -0.54166669 -0.54166663 -0.54166669 -0.54166669 -1.16666663 3.40000010 -0.54166669 -1.16666663 4.25000000 -0.54166669 -1.16666663 4.25000000 1.00000000 -1.16666663 4.25000000 1.00000000 -0.54166663 3.40000010 -0.54166669 -1.31666660 3.40000010 0.15000001 -1.31666660 4.25000000 -0.54166669 -1.31666660 4.25000000 1.00000000 -1.31666660 3.40000010 0.15000001 -1.16666663 4.25000000 0.34999999 0.54166663 4.25000000 0.34999999 -0.54166663 0.43333334 0.00000000 -0.54166663 0.86666667 0.43333334 -0.54166663 0.43333334 0.00000000 0.54166663 0.86666667 0.43333334 0.54166663 1.29999995 0.00000000 -0.54166663 1.29999995 0.00000000 0.54166663 1.73333335 0.43333334 -0.54166663 1.73333335 0.43333334 0.54166663 2.16666675 0.00000000 -0.54166663 2.16666675 0.00000000 0.54166663 2.59999990 0.43333334 -0.54166663 2.59999990 0.43333334 0.54166663 3.03333330 0.00000000 -0.54166663 3.03333330 0.00000000 0.54166663 3.46666670 0.43333334 -0.54166663 3.46666670 0.43333334 0.54166663 3.90000010 0.00000000 -0.54166663 3.90000010 0.00000000 0.54166663 -0.54166669 -0.54166669 0.54166663 0.15000001 0.15000001 1.16666663 1.00000000 1.00000000 0.74275359 1.00000000 1.00000000 1.16666663 1.00000000 1.00000000 1.31666660 0.15000001 0.15000001 1.31666660 1.00000000 1.00000000 1.21492749 0.15000001 0.15000001 1.29034525 -0.54166669 -0.54166669 -0.54166663 0.15000001 0.15000001 -1.16666663 1.00000000 1.00000000 -1.16666663 1.00000000 1.00000000 -0.74275359 0.15000001 0.15000001 -1.31666660 1.00000000 1.00000000 -1.31666660 1.00000000 1.00000000 -1.21492749 0.15000001 0.15000001 -1.29034525 0.21666667 0.21666667 0.54166663 1.00000000 1.00000000 0.54166663 0.21666667 0.21666667 -0.54166663 1.00000000 1.00000000 -0.54166663 0.21666667 0.21666667 0.00000000 1.00000000 1.00000000 -0.28676468
POLYGONS 95 473
3 0 1 2 
3 2 1 3 
3 1 4 3 
3 3 4 5 
3 4 6 5 
3 5 6 7 
3 6 8 7 
3 7 8 9 
3 8 10 9 
3 9 10 11 
3 10 12 11 
3 11 12 13 
3 12 14 13 
3 13 14 15 
3 14 16 15 
3 17 0 2 
4 18 19 15 16 
3 20 18 21 
3 22 19 23 
3 23 18 24 
3 24 20 25 
3 26 19 22 
3 19 18 23 
3 18 20 24 
3 27 28 29 
3 30 28 27 
3 30 31 28 
3 32 31 30 
3 32 33 31 
3 34 33 32 
3 34 35 33 
3 36 35 34 
3 36 37 35 
3 38 37 36 
3 38 39 37 
3 40 39 38 
3 40 41 39 
3 42 41 40 
3 42 43 41 
3 27 29 44 
4 45 46 43 42 
3 46 47 48 
3 49 45 50 
3 51 46 49 
3 52 47 51 
3 50 45 53 
3 49 46 45 
3 51 47 46 
4 16 54 21 18 
4 46 48 55 43 
3 56 57 58 
3 59 58 57 
3 57 60 59 
3 61 59 60 
3 60 62 61 
3 63 61 62 
3 62 64 63 
3 65 63 64 
3 64 66 65 
3 67 65 66 
3 66 68 67 
3 69 67 68 
3 68 70 69 
3 71 69 70 
3 70 72 71 
3 73 71 72 
3 72 55 73 
3 54 73 55 
3 55 48 54 
3 21 54 48 
3 17 74 0 
12 2 3 5 7 9 11 13 15 19 26 75 17 
3 76 77 20 
6 78 79 22 23 24 25 
3 80 78 25 
4 79 81 26 22 
4 20 77 80 25 
3 81 75 26 
3 82 44 29 
12 44 83 53 45 42 40 38 36 34 32 30 27 
3 84 85 47 
6 86 87 52 51 49 50 
3 87 88 52 
4 89 86 50 53 
4 52 88 84 47 
3 83 89 53 
21 74 90 58 59 61 63 65 67 69 71 73 54 16 14 12 10 8 6 4 1 0 
4 21 91 76 20 
21 29 28 31 33 35 37 39 41 43 55 72 70 68 66 64 62 60 57 56 92 82 
4 47 85 93 48 
3 94 92 56 
4 58 90 94 56 
4 48 93 95 21 
3 95 91 21 
24 87 86 89 83 44 82 92 94 90 74 17 75 81 79 78 80 77 76 91 95 93 85 84 88 

CELL_DATA 95
FIELD FieldData 2
OrigCellIdsA 1 95 int
0 1 2 3 4 5 6 7 8 
9 10 11 12 13 14 17 19 20 
24 25 26 30 31 32 36 37 38 
39 40 41 42 43 44 45 46 47 
48 49 50 53 55 56 60 61 62 
66 67 68 73 76 80 81 82 83 
84 85 86 87 88 89 90 91 92 
93 94 95 96 97 98 99 16 18 
21 23 27 29 33 35 52 54 57 
59 63 65 69 71 72 74 75 77 
78 79 100 101 -1 
OrigCellIdsB 1 95 int
-1 -1 -1 -1 -1 -1 -1 -1 -1 
-1 -1 -1 -1 -1 -1 -1 -1 -1 
-1 -1 -1 -1 -1 -1 -1 -1 -1 
-1 -1 -1 -1 -1 -1 -1 -1 -1 
-1 -1 -1 -1 -1 -1 -1 -1 -1 
-1 -1 -1 -1 -1 -1 -1 -1 -1 
-1 -1 -1 -1 -1 -1 -1 -1 -1 
-1 -1 -1 -1 -1 -1 -1 -1 -1 
-1 -1 -1 -1 -1 -1 -1 -1 -1 
-1 -1 -1 -1 -1 -1 -1 -1 -1 
-1 -1 -1 -1 0 
POINT_DATA 96
SCALARS RegionId vtkIdType
LOOKUP_TABLE default
0 0 0 0 0 0 0 0 0 
0 0 0 0 0 0 0 0 0 
0 0 0 0 0 0 0 0 0 
0 0 0 0 0 0 0 0 0 
0 0 0 0 0 0 0 0 0 
0 0 0 0 0 0 0 0 0 
0 0 0 0 0 0 0 0 0 
0 0 0 0 0 0 0 0 0 
0 0 0 0 0 0 0 0 0 
0 0 0 0 0 0 0 0 0 
0 0 0 0 0 0 
