# vtk DataFile Version 4.0
vtk output
ASCII
DATASET POLYDATA
POINTS 54 double
2.08333 1 0.541667 2.08333 -0.541667 1.16667 2.08333 1 1.16667 
2.08333 -0.541667 0.541667 -0.541667 -0.541667 1.16667 1.23333 -0.541667 1.16667 
1.23333 -0.541667 1.31667 1.23333 0.15 1.31667 2.08333 -0.541667 1.31667 
2.08333 1 1.31667 1.23333 0.15 1.16667 2.08333 1 -0.541667 
2.08333 1 -1.16667 2.08333 -0.541667 -1.16667 -0.541667 -0.541667 -1.16667 
2.08333 -0.541667 -0.541667 1.23333 -0.541667 -1.16667 1.23333 0.15 -1.31667 
1.23333 -0.541667 -1.31667 2.08333 -0.541667 -1.31667 2.08333 1 -1.31667 
1.23333 0.15 -1.16667 -0.541667 -0.541667 0.541667 1.3 0 0.541667 
0.433333 0 0.541667 0.866667 0.433333 0.541667 2.08333 0.0833333 0.541667 
1.73333 0.433333 0.541667 1.73333 0.433333 -0.541667 2.08333 0.0833333 -0.541667 
1.3 0 -0.541667 -0.541667 -0.541667 -0.541667 0.433333 0 -0.541667 
0.866667 0.433333 -0.541667 0.15 0.15 1.16667 1 1 1.16667 
1 1 0.90873 0.15 0.15 1.31667 1 1 1.31667 
1 1 1.25476 0.15 0.15 1.25822 0.15 0.15 -1.16667 
1 1 -0.90873 1 1 -1.16667 1 1 -1.31667 
0.15 0.15 -1.31667 1 1 -1.25476 0.15 0.15 -1.25822 
0.216667 0.216667 0.541667 0.216667 0.216667 -0.541667 1 1 0.541667 
1 1 -0.541667 0.216667 0.216667 2.98023e-08 1 1 -0.0216666 

POLYGONS 65 299
3 0 1 2 
4 3 4 5 1 
3 6 5 7 
3 8 1 6 
3 9 2 8 
3 7 5 10 
3 6 1 5 
3 8 2 1 
3 11 12 13 
4 14 15 13 16 
3 17 16 18 
3 18 13 19 
3 19 12 20 
3 21 16 17 
3 16 13 18 
3 13 12 19 
4 22 3 23 24 
3 23 25 24 
4 3 26 27 23 
4 28 29 15 30 
4 15 31 32 30 
3 32 33 30 
4 1 0 26 3 
4 15 29 11 13 
3 24 33 32 
3 33 24 25 
3 25 30 33 
3 30 25 23 
3 23 28 30 
3 28 23 27 
3 27 29 28 
3 29 27 26 
3 26 11 29 
3 11 26 0 
3 3 22 4 
4 4 34 10 5 
3 2 35 36 
4 37 38 9 7 
4 9 8 6 7 
3 9 38 39 
4 7 10 40 37 
4 9 39 35 2 
3 10 34 40 
3 15 14 31 
4 16 21 41 14 
3 12 42 43 
4 18 19 20 17 
4 20 44 45 17 
3 20 46 44 
4 21 17 45 47 
4 12 43 46 20 
3 21 47 41 
3 24 48 22 
3 31 49 32 
4 2 36 50 0 
4 11 51 42 12 
3 32 49 52 
4 32 52 48 24 
4 0 53 51 11 
3 0 50 53 
5 34 48 38 37 40 
4 34 4 22 48 
14 48 52 49 44 46 43 42 51 53 50 36 35 39 38 
5 49 41 47 45 44 
4 49 31 14 41 

CELL_DATA 65
FIELD FieldData 2
OrigCellIdsA 1 65 int
3 6 8 9 10 14 15 16 23 
26 28 29 30 34 35 36 42 43 
44 45 46 47 50 53 56 57 58 
59 60 61 62 63 64 65 1 2 
4 7 7 11 13 17 19 21 22 
24 27 27 31 33 37 39 41 48 
51 52 54 55 66 67 -1 -1 -1 
-1 -1 
OrigCellIdsB 1 65 int
-1 -1 -1 -1 -1 -1 -1 -1 -1 
-1 -1 -1 -1 -1 -1 -1 -1 -1 
-1 -1 -1 -1 -1 -1 -1 -1 -1 
-1 -1 -1 -1 -1 -1 -1 -1 -1 
-1 -1 -1 -1 -1 -1 -1 -1 -1 
-1 -1 -1 -1 -1 -1 -1 -1 -1 
-1 -1 -1 -1 -1 -1 0 0 0 
0 0 
POINT_DATA 54
SCALARS RegionId vtkIdType
LOOKUP_TABLE default
0 0 0 0 0 0 0 0 0 
0 0 0 0 0 0 0 0 0 
0 0 0 0 0 0 0 0 0 
0 0 0 0 0 0 0 0 0 
0 0 0 0 0 0 0 0 0 
0 0 0 0 0 0 0 0 0 

