# vtk DataFile Version 4.0
vtk output
ASCII
DATASET POLYDATA
POINTS 290 double
0.46666667 -0.54166669 0.54166663 0.46666667 -0.39166668 0.54166663 0.46666667 -0.54166669 1.16666663 0.46666667 -0.39166668 1.16666663 0.61666667 -0.39166668 0.54166663 0.61666667 -0.39166668 1.16666663 0.61666667 -0.54166669 0.54166663 0.61666667 -0.54166669 1.16666663 1.54999995 -0.54166669 0.54166663 1.54999995 -0.54166669 1.16666663 1.54999995 -0.39166668 0.54166663 1.54999995 -0.39166668 1.16666663 1.70000005 -0.39166668 0.54166663 1.70000005 -0.39166668 1.16666663 1.70000005 -0.54166669 0.54166663 1.70000005 -0.54166669 1.16666663 2.63333344 -0.54166669 0.54166663 2.63333344 -0.54166669 1.16666663 2.63333344 -0.39166668 0.54166663 2.63333344 -0.39166668 1.16666663 2.78333330 -0.39166668 0.54166663 2.78333330 -0.39166668 1.16666663 2.78333330 -0.54166669 0.54166663 2.78333330 -0.54166669 1.16666663 3.71666670 -0.54166669 0.54166663 3.71666670 -0.54166669 1.16666663 3.71666670 -0.39166668 0.54166663 3.71666670 -0.39166668 1.16666663 3.86666656 -0.39166668 0.54166663 3.86666656 -0.39166668 1.16666663 3.86666656 -0.54166669 0.54166663 3.86666656 -0.54166669 1.16666663 4.80000019 -0.54166669 0.54166663 4.80000019 -0.54166669 1.16666663 4.80000019 -0.39166668 0.54166663 4.80000019 -0.39166668 1.16666663 4.94999981 -0.39166668 0.54166663 4.94999981 -0.39166668 1.16666663 4.94999981 -0.54166669 0.54166663 4.94999981 -0.54166669 1.16666663 5.88333321 -0.54166669 0.54166663 5.88333321 -0.54166669 1.16666663 5.88333321 -0.39166668 0.54166663 5.88333321 -0.39166668 1.16666663 6.03333330 -0.39166668 0.54166663 6.03333330 -0.39166668 1.16666663 6.03333330 -0.54166669 0.54166663 6.03333330 -0.54166669 1.16666663 6.96666670 -0.54166669 0.54166663 6.96666670 -0.54166669 1.16666663 6.96666670 -0.39166668 0.54166663 6.96666670 -0.39166668 1.16666663 7.11666679 -0.39166668 0.54166663 7.11666679 -0.39166668 1.16666663 7.11666679 -0.54166669 0.54166663 7.11666679 -0.54166669 1.16666663 8.05000019 -0.54166669 0.54166663 8.05000019 -0.54166669 1.16666663 8.05000019 -0.39166668 0.54166663 8.05000019 -0.39166668 1.16666663 8.19999981 -0.39166668 0.54166663 8.19999981 -0.39166668 1.16666663 8.19999981 -0.54166669 0.54166663 8.19999981 -0.54166669 1.16666663 9.13333321 -0.54166669 0.54166663 9.13333321 -0.54166669 1.16666663 9.13333321 -0.39166668 0.54166663 9.13333321 -0.39166668 1.16666663 9.28333378 -0.39166668 0.54166663 9.28333378 -0.39166668 1.16666663 9.28333378 -0.54166669 0.54166663 9.28333378 -0.54166669 1.16666663 10.21666622 -0.54166669 0.54166663 10.21666622 -0.54166669 1.16666663 10.21666622 -0.39166668 0.54166663 10.21666622 -0.39166668 1.16666663 10.36666679 -0.39166668 0.54166663 10.36666679 -0.39166668 1.16666663 10.36666679 -0.54166669 0.54166663 10.36666679 -0.54166669 1.16666663 11.30000019 -0.54166669 0.54166663 11.30000019 -0.54166669 1.16666663 11.30000019 -0.39166668 0.54166663 11.30000019 -0.39166668 1.16666663 11.44999981 -0.39166668 0.54166663 11.44999981 -0.39166668 1.16666663 11.44999981 -0.54166669 0.54166663 11.44999981 -0.54166669 1.16666663 12.45833302 -0.54166669 0.54166663 12.45833302 -0.54166669 1.16666663 -0.54166669 -0.54166669 1.16666663 12.45833302 1.00000000 1.16666663 12.45833302 0.15000001 1.16666663 12.45833302 1.00000000 0.54166663 12.45833302 0.15000001 1.31666660 12.45833302 1.00000000 1.31666660 0.46666667 -0.54166669 -1.16666663 0.46666667 -0.39166668 -0.54166663 0.46666667 -0.54166669 -0.54166663 0.46666667 -0.39166668 -1.16666663 0.61666667 -0.39166668 -0.54166663 0.61666667 -0.39166668 -1.16666663 0.61666667 -0.54166669 -0.54166663 0.61666667 -0.54166669 -1.16666663 1.54999995 -0.54166669 -0.54166663 1.54999995 -0.54166669 -1.16666663 1.54999995 -0.39166668 -0.54166663 1.54999995 -0.39166668 -1.16666663 1.70000005 -0.39166668 -0.54166663 1.70000005 -0.39166668 -1.16666663 1.70000005 -0.54166669 -0.54166663 1.70000005 -0.54166669 -1.16666663 2.63333344 -0.54166669 -0.54166663 2.63333344 -0.54166669 -1.16666663 2.63333344 -0.39166668 -0.54166663 2.63333344 -0.39166668 -1.16666663 2.78333330 -0.39166668 -0.54166663 2.78333330 -0.39166668 -1.16666663 2.78333330 -0.54166669 -0.54166663 2.78333330 -0.54166669 -1.16666663 3.71666670 -0.54166669 -0.54166663 3.71666670 -0.54166669 -1.16666663 3.71666670 -0.39166668 -0.54166663 3.71666670 -0.39166668 -1.16666663 3.86666656 -0.39166668 -0.54166663 3.86666656 -0.39166668 -1.16666663 3.86666656 -0.54166669 -0.54166663 3.86666656 -0.54166669 -1.16666663 4.80000019 -0.54166669 -0.54166663 4.80000019 -0.54166669 -1.16666663 4.80000019 -0.39166668 -0.54166663 4.80000019 -0.39166668 -1.16666663 4.94999981 -0.39166668 -0.54166663 4.94999981 -0.39166668 -1.16666663 4.94999981 -0.54166669 -0.54166663 4.94999981 -0.54166669 -1.16666663 5.88333321 -0.54166669 -0.54166663 5.88333321 -0.54166669 -1.16666663 5.88333321 -0.39166668 -0.54166663 5.88333321 -0.39166668 -1.16666663 6.03333330 -0.39166668 -0.54166663 6.03333330 -0.39166668 -1.16666663 6.03333330 -0.54166669 -0.54166663 6.03333330 -0.54166669 -1.16666663 6.96666670 -0.54166669 -0.54166663 6.96666670 -0.54166669 -1.16666663 6.96666670 -0.39166668 -0.54166663 6.96666670 -0.39166668 -1.16666663 7.11666679 -0.39166668 -0.54166663 7.11666679 -0.39166668 -1.16666663 7.11666679 -0.54166669 -0.54166663 7.11666679 -0.54166669 -1.16666663 8.05000019 -0.54166669 -0.54166663 8.05000019 -0.54166669 -1.16666663 8.05000019 -0.39166668 -0.54166663 8.05000019 -0.39166668 -1.16666663 8.19999981 -0.39166668 -0.54166663 8.19999981 -0.39166668 -1.16666663 8.19999981 -0.54166669 -0.54166663 8.19999981 -0.54166669 -1.16666663 9.13333321 -0.54166669 -0.54166663 9.13333321 -0.54166669 -1.16666663 9.13333321 -0.39166668 -0.54166663 9.13333321 -0.39166668 -1.16666663 9.28333378 -0.39166668 -0.54166663 9.28333378 -0.39166668 -1.16666663 9.28333378 -0.54166669 -0.54166663 9.28333378 -0.54166669 -1.16666663 10.21666622 -0.54166669 -0.54166663 10.21666622 -0.54166669 -1.16666663 10.21666622 -0.39166668 -0.54166663 10.21666622 -0.39166668 -1.16666663 10.36666679 -0.39166668 -0.54166663 10.36666679 -0.39166668 -1.16666663 10.36666679 -0.54166669 -0.54166663 10.36666679 -0.54166669 -1.16666663 11.30000019 -0.54166669 -0.54166663 11.30000019 -0.54166669 -1.16666663 11.30000019 -0.39166668 -0.54166663 11.30000019 -0.39166668 -1.16666663 11.44999981 -0.39166668 -0.54166663 11.44999981 -0.39166668 -1.16666663 11.44999981 -0.54166669 -0.54166663 11.44999981 -0.54166669 -1.16666663 12.45833302 -0.54166669 -0.54166663 12.45833302 -0.54166669 -1.16666663 -0.54166669 -0.54166669 -1.16666663 12.45833302 0.15000001 -1.16666663 12.45833302 1.00000000 -1.16666663 12.45833302 1.00000000 -0.54166663 12.45833302 1.00000000 -1.31666660 12.45833302 0.15000001 -1.31666660 12.45833302 0.10833333 0.54166663 12.45833302 0.10833333 -0.54166663 0.43333334 0.00000000 -0.54166663 0.86666667 0.43333334 -0.54166663 0.43333334 0.00000000 0.54166663 0.86666667 0.43333334 0.54166663 1.29999995 0.00000000 -0.54166663 1.29999995 0.00000000 0.54166663 1.73333335 0.43333334 -0.54166663 1.73333335 0.43333334 0.54166663 2.16666675 0.00000000 -0.54166663 2.16666675 0.00000000 0.54166663 2.59999990 0.43333334 -0.54166663 2.59999990 0.43333334 0.54166663 3.03333330 0.00000000 -0.54166663 3.03333330 0.00000000 0.54166663 3.46666670 0.43333334 -0.54166663 3.46666670 0.43333334 0.54166663 3.90000010 0.00000000 -0.54166663 3.90000010 0.00000000 0.54166663 4.33333349 0.43333334 -0.54166663 4.33333349 0.43333334 0.54166663 4.76666689 0.00000000 -0.54166663 4.76666689 0.00000000 0.54166663 5.19999981 0.43333334 -0.54166663 5.19999981 0.43333334 0.54166663 5.63333321 0.00000000 -0.54166663 5.63333321 0.00000000 0.54166663 6.06666660 0.43333334 -0.54166663 6.06666660 0.43333334 0.54166663 6.50000000 0.00000000 -0.54166663 6.50000000 0.00000000 0.54166663 6.93333340 0.43333334 -0.54166663 6.93333340 0.43333334 0.54166663 7.36666679 0.00000000 -0.54166663 7.36666679 0.00000000 0.54166663 7.80000019 0.43333334 -0.54166663 7.80000019 0.43333334 0.54166663 8.23333359 0.00000000 -0.54166663 8.23333359 0.00000000 0.54166663 8.66666698 0.43333334 -0.54166663 8.66666698 0.43333334 0.54166663 9.10000038 0.00000000 -0.54166663 9.10000038 0.00000000 0.54166663 9.53333378 0.43333334 -0.54166663 9.53333378 0.43333334 0.54166663 9.96666622 0.00000000 -0.54166663 9.96666622 0.00000000 0.54166663 10.39999962 0.43333334 -0.54166663 10.39999962 0.43333334 0.54166663 10.83333302 0.00000000 -0.54166663 10.83333302 0.00000000 0.54166663 11.26666641 0.43333334 -0.54166663 11.26666641 0.43333334 0.54166663 11.69999981 0.00000000 -0.54166663 11.69999981 0.00000000 0.54166663 12.13333321 0.43333334 -0.54166663 12.13333321 0.43333334 0.54166663 -0.54166669 -0.54166669 0.54166663 0.15000001 0.15000001 1.16666663 1.00000000 1.00000000 1.31666660 0.15000001 0.15000001 1.31666660 1.00000000 1.00000000 1.18445509 0.15000001 0.15000001 1.30868583 1.00000000 1.00000000 1.16666663 -0.54166669 -0.54166669 -0.54166663 0.15000001 0.15000001 -1.16666663 0.15000001 0.15000001 -1.31666660 1.00000000 1.00000000 -1.31666660 1.00000000 1.00000000 -1.18445509 0.15000001 0.15000001 -1.30868583 1.00000000 1.00000000 -1.16666663 0.21666667 0.21666667 0.54166663 0.21666667 0.21666667 -0.54166663 0.21666667 0.21666667 0.00000000 1.00000000 1.00000000 0.61578522 1.00000000 1.00000000 0.54166663 1.00000000 1.00000000 -0.45471011 1.00000000 1.00000000 -0.54166663 1.00000000 1.00000000 -0.61578522 3.79166737 1.00000000 0.75000000 3.72916675 1.00000000 0.75000000 3.72916675 1.00000000 0.74699516 3.72916675 1.00000000 -0.74699516 3.72916675 1.00000000 -0.75000000 3.79166737 1.00000000 -0.75000000 8.72916698 1.00000000 0.54166663 8.72916698 1.00000000 0.75000000 3.72916675 1.00000000 0.54166663 3.72916675 1.00000000 -0.54166663 8.72916698 1.00000000 -0.75000000 8.72916698 1.00000000 -0.54166663 3.72916675 1.00000000 -0.21739127 8.72916698 1.00000000 0.21739134 8.72916698 2.50000000 -0.75000000 8.72916698 2.50000000 0.75000000 3.72916675 2.50000000 -0.75000000 3.72916675 2.50000000 0.75000000
POLYGONS 281 1419
3 0 1 2 
3 2 1 3 
3 1 4 3 
3 3 4 5 
3 4 6 5 
3 5 6 7 
3 6 8 7 
3 7 8 9 
3 8 10 9 
3 9 10 11 
3 10 12 11 
3 11 12 13 
3 12 14 13 
3 13 14 15 
3 14 16 15 
3 15 16 17 
3 16 18 17 
3 17 18 19 
3 18 20 19 
3 19 20 21 
3 20 22 21 
3 21 22 23 
3 22 24 23 
3 23 24 25 
3 24 26 25 
3 25 26 27 
3 26 28 27 
3 27 28 29 
3 28 30 29 
3 29 30 31 
3 30 32 31 
3 31 32 33 
3 32 34 33 
3 33 34 35 
3 34 36 35 
3 35 36 37 
3 36 38 37 
3 37 38 39 
3 38 40 39 
3 39 40 41 
3 40 42 41 
3 41 42 43 
3 42 44 43 
3 43 44 45 
3 44 46 45 
3 45 46 47 
3 46 48 47 
3 47 48 49 
3 48 50 49 
3 49 50 51 
3 50 52 51 
3 51 52 53 
3 52 54 53 
3 53 54 55 
3 54 56 55 
3 55 56 57 
3 56 58 57 
3 57 58 59 
3 58 60 59 
3 59 60 61 
3 60 62 61 
3 61 62 63 
3 62 64 63 
3 63 64 65 
3 64 66 65 
3 65 66 67 
3 66 68 67 
3 67 68 69 
3 68 70 69 
3 69 70 71 
3 70 72 71 
3 71 72 73 
3 72 74 73 
3 73 74 75 
3 74 76 75 
3 75 76 77 
3 76 78 77 
3 77 78 79 
3 78 80 79 
3 79 80 81 
3 80 82 81 
3 81 82 83 
3 82 84 83 
3 83 84 85 
3 84 86 85 
3 85 86 87 
3 86 88 87 
3 87 88 89 
3 90 0 2 
4 91 92 89 93 
3 94 91 95 
3 92 91 94 
3 96 97 98 
3 99 97 96 
3 99 100 97 
3 101 100 99 
3 101 102 100 
3 103 102 101 
3 103 104 102 
3 105 104 103 
3 105 106 104 
3 107 106 105 
3 107 108 106 
3 109 108 107 
3 109 110 108 
3 111 110 109 
3 111 112 110 
3 113 112 111 
3 113 114 112 
3 115 114 113 
3 115 116 114 
3 117 116 115 
3 117 118 116 
3 119 118 117 
3 119 120 118 
3 121 120 119 
3 121 122 120 
3 123 122 121 
3 123 124 122 
3 125 124 123 
3 125 126 124 
3 127 126 125 
3 127 128 126 
3 129 128 127 
3 129 130 128 
3 131 130 129 
3 131 132 130 
3 133 132 131 
3 133 134 132 
3 135 134 133 
3 135 136 134 
3 137 136 135 
3 137 138 136 
3 139 138 137 
3 139 140 138 
3 141 140 139 
3 141 142 140 
3 143 142 141 
3 143 144 142 
3 145 144 143 
3 145 146 144 
3 147 146 145 
3 147 148 146 
3 149 148 147 
3 149 150 148 
3 151 150 149 
3 151 152 150 
3 153 152 151 
3 153 154 152 
3 155 154 153 
3 155 156 154 
3 157 156 155 
3 157 158 156 
3 159 158 157 
3 159 160 158 
3 161 160 159 
3 161 162 160 
3 163 162 161 
3 163 164 162 
3 165 164 163 
3 165 166 164 
3 167 166 165 
3 167 168 166 
3 169 168 167 
3 169 170 168 
3 171 170 169 
3 171 172 170 
3 173 172 171 
3 173 174 172 
3 175 174 173 
3 175 176 174 
3 177 176 175 
3 177 178 176 
3 179 178 177 
3 179 180 178 
3 181 180 179 
3 181 182 180 
3 183 182 181 
3 183 184 182 
3 185 184 183 
3 96 98 186 
4 187 188 189 185 
3 190 188 191 
3 191 188 187 
4 88 192 93 89 
4 185 189 193 184 
3 194 195 196 
3 197 196 195 
3 195 198 197 
3 199 197 198 
3 198 200 199 
3 201 199 200 
3 200 202 201 
3 203 201 202 
3 202 204 203 
3 205 203 204 
3 204 206 205 
3 207 205 206 
3 206 208 207 
3 209 207 208 
3 208 210 209 
3 211 209 210 
3 210 212 211 
3 213 211 212 
3 212 214 213 
3 215 213 214 
3 214 216 215 
3 217 215 216 
3 216 218 217 
3 219 217 218 
3 218 220 219 
3 221 219 220 
3 220 222 221 
3 223 221 222 
3 222 224 223 
3 225 223 224 
3 224 226 225 
3 227 225 226 
3 226 228 227 
3 229 227 228 
3 228 230 229 
3 231 229 230 
3 230 232 231 
3 233 231 232 
3 232 234 233 
3 235 233 234 
3 234 236 235 
3 237 235 236 
3 236 238 237 
3 239 237 238 
3 238 240 239 
3 241 239 240 
3 240 242 241 
3 243 241 242 
3 242 244 243 
3 245 243 244 
3 244 246 245 
3 247 245 246 
3 246 248 247 
3 249 247 248 
3 248 193 249 
3 192 249 193 
3 193 189 192 
3 93 192 189 
3 90 250 0 
48 2 3 5 7 9 11 13 15 17 19 21 23 25 27 29 31 33 35 37 39 41 43 45 47 49 51 53 55 57 59 61 63 65 67 69 71 73 75 77 79 81 83 85 87 89 92 251 90 
4 252 253 94 95 
3 254 252 95 
4 253 255 92 94 
4 91 256 254 95 
3 255 251 92 
3 257 186 98 
48 186 258 187 185 183 181 179 177 175 173 171 169 167 165 163 161 159 157 155 153 151 149 147 145 143 141 139 137 135 133 131 129 127 125 123 121 119 117 115 113 111 109 107 105 103 101 99 96 
4 259 260 190 191 
3 260 261 190 
4 262 259 191 187 
4 190 261 263 188 
3 258 262 187 
76 250 264 196 197 199 201 203 205 207 209 211 213 215 217 219 221 223 225 227 229 231 233 235 237 239 241 243 245 247 249 192 88 86 84 82 80 78 76 74 72 70 68 66 64 62 60 58 56 54 52 50 48 46 44 42 40 38 36 34 32 30 28 26 24 22 20 18 16 14 12 10 8 6 4 1 0 
76 98 97 100 102 104 106 108 110 112 114 116 118 120 122 124 126 128 130 132 134 136 138 140 142 144 146 148 150 152 154 156 158 160 162 164 166 168 170 172 174 176 178 180 182 184 193 248 246 244 242 240 238 236 234 232 230 228 226 224 222 220 218 216 214 212 210 208 206 204 202 200 198 195 194 265 257 
3 266 265 194 
4 196 264 266 194 
24 266 264 250 90 251 255 253 252 254 256 267 268 269 270 271 263 261 260 259 262 258 186 257 265 
6 272 273 274 267 256 91 
6 263 271 275 276 277 188 
5 93 278 279 272 91 
4 274 280 268 267 
4 281 275 271 270 
5 188 277 282 283 189 
4 284 281 270 269 
4 189 283 285 93 
4 280 284 269 268 
3 285 278 93 
3 279 286 287 
3 286 288 287 
3 287 288 289 
3 288 276 289 
6 279 278 285 283 282 286 
5 282 277 276 288 286 
8 289 276 275 281 284 280 274 273 
5 273 272 279 287 289 

CELL_DATA 281
FIELD FieldData 2
OrigCellIdsA 1 281 int
0 1 2 3 4 5 6 7 8 
9 10 11 12 13 14 15 16 17 
18 19 20 21 22 23 24 25 26 
27 28 29 30 31 32 33 34 35 
36 37 38 39 40 41 42 43 44 
45 46 47 48 49 50 51 52 53 
54 55 56 57 58 59 60 61 62 
63 64 65 66 67 68 69 70 71 
72 73 74 75 76 77 78 79 80 
81 82 83 84 85 86 87 88 89 
90 91 92 93 94 95 96 97 98 
99 100 101 102 103 104 105 106 107 
108 109 110 111 112 113 114 115 116 
117 118 119 120 121 122 123 124 125 
126 127 128 129 130 131 132 133 134 
135 136 137 138 139 140 141 142 143 
144 145 146 147 148 149 150 151 152 
153 154 155 156 157 158 159 160 161 
162 163 164 165 166 167 168 169 170 
171 172 173 174 175 176 177 178 179 
180 181 182 183 184 185 186 187 188 
189 190 191 192 193 194 195 196 197 
198 199 200 201 202 203 204 205 206 
207 208 209 210 211 212 213 214 215 
216 217 218 219 220 221 222 223 224 
225 226 227 228 229 230 231 232 233 
234 235 236 237 238 239 240 241 242 
243 244 245 247 248 249 250 251 252 
253 255 256 257 258 259 260 262 264 
265 268 246 254 261 261 263 263 266 
266 267 267 -1 -1 -1 -1 -1 -1 
-1 -1 
OrigCellIdsB 1 281 int
-1 -1 -1 -1 -1 -1 -1 -1 -1 
-1 -1 -1 -1 -1 -1 -1 -1 -1 
-1 -1 -1 -1 -1 -1 -1 -1 -1 
-1 -1 -1 -1 -1 -1 -1 -1 -1 
-1 -1 -1 -1 -1 -1 -1 -1 -1 
-1 -1 -1 -1 -1 -1 -1 -1 -1 
-1 -1 -1 -1 -1 -1 -1 -1 -1 
-1 -1 -1 -1 -1 -1 -1 -1 -1 
-1 -1 -1 -1 -1 -1 -1 -1 -1 
-1 -1 -1 -1 -1 -1 -1 -1 -1 
-1 -1 -1 -1 -1 -1 -1 -1 -1 
-1 -1 -1 -1 -1 -1 -1 -1 -1 
-1 -1 -1 -1 -1 -1 -1 -1 -1 
-1 -1 -1 -1 -1 -1 -1 -1 -1 
-1 -1 -1 -1 -1 -1 -1 -1 -1 
-1 -1 -1 -1 -1 -1 -1 -1 -1 
-1 -1 -1 -1 -1 -1 -1 -1 -1 
-1 -1 -1 -1 -1 -1 -1 -1 -1 
-1 -1 -1 -1 -1 -1 -1 -1 -1 
-1 -1 -1 -1 -1 -1 -1 -1 -1 
-1 -1 -1 -1 -1 -1 -1 -1 -1 
-1 -1 -1 -1 -1 -1 -1 -1 -1 
-1 -1 -1 -1 -1 -1 -1 -1 -1 
-1 -1 -1 -1 -1 -1 -1 -1 -1 
-1 -1 -1 -1 -1 -1 -1 -1 -1 
-1 -1 -1 -1 -1 -1 -1 -1 -1 
-1 -1 -1 -1 -1 -1 -1 -1 -1 
-1 -1 -1 -1 -1 -1 -1 -1 -1 
-1 -1 -1 -1 -1 -1 -1 -1 -1 
-1 -1 -1 -1 -1 -1 -1 -1 -1 
-1 -1 -1 3 4 5 6 2 0 
7 1 
POINT_DATA 290
SCALARS RegionId vtkIdType
LOOKUP_TABLE default
0 0 0 0 0 0 0 0 0 
0 0 0 0 0 0 0 0 0 
0 0 0 0 0 0 0 0 0 
0 0 0 0 0 0 0 0 0 
0 0 0 0 0 0 0 0 0 
0 0 0 0 0 0 0 0 0 
0 0 0 0 0 0 0 0 0 
0 0 0 0 0 0 0 0 0 
0 0 0 0 0 0 0 0 0 
0 0 0 0 0 0 0 0 0 
0 0 0 0 0 0 0 0 0 
0 0 0 0 0 0 0 0 0 
0 0 0 0 0 0 0 0 0 
0 0 0 0 0 0 0 0 0 
0 0 0 0 0 0 0 0 0 
0 0 0 0 0 0 0 0 0 
0 0 0 0 0 0 0 0 0 
0 0 0 0 0 0 0 0 0 
0 0 0 0 0 0 0 0 0 
0 0 0 0 0 0 0 0 0 
0 0 0 0 0 0 0 0 0 
0 0 0 0 0 0 0 0 0 
0 0 0 0 0 0 0 0 0 
0 0 0 0 0 0 0 0 0 
0 0 0 0 0 0 0 0 0 
0 0 0 0 0 0 0 0 0 
0 0 0 0 0 0 0 0 0 
0 0 0 0 0 0 0 0 0 
0 0 0 0 0 0 0 0 0 
0 0 0 0 0 0 0 0 0 
0 0 0 0 0 0 0 0 0 
0 0 0 0 0 0 0 1 1 
1 1 
