# vtk DataFile Version 4.0
vtk output
ASCII
DATASET POLYDATA
POINTS 284 double
-0.99239999 -0.54166669 1.16666663 -0.99239999 -0.39166668 0.54166663 -0.99239999 -0.54166669 0.54166663 -0.99239999 -0.39166668 1.16666663 -1.14240003 -0.39166668 0.54166663 -1.14240003 -0.39166668 1.16666663 -1.14240003 -0.54166669 0.54166663 -1.14240003 -0.54166669 1.16666663 -3.15906668 -0.54166669 0.54166663 -3.15906668 -0.54166669 1.16666663 -3.15906668 -0.39166668 0.54166663 -3.15906668 -0.39166668 1.16666663 -3.30906677 -0.39166668 0.54166663 -3.30906677 -0.39166668 1.16666663 -3.30906677 -0.54166669 0.54166663 -3.30906677 -0.54166669 1.16666663 -5.32573318 -0.54166669 0.54166663 -5.32573318 -0.54166669 1.16666663 -5.32573318 -0.39166668 0.54166663 -5.32573318 -0.39166668 1.16666663 -5.47573328 -0.39166668 0.54166663 -5.47573328 -0.39166668 1.16666663 -5.47573328 -0.54166669 0.54166663 -5.47573328 -0.54166669 1.16666663 -7.49240017 -0.54166669 0.54166663 -7.49240017 -0.54166669 1.16666663 -7.49240017 -0.39166668 0.54166663 -7.49240017 -0.39166668 1.16666663 -7.64239979 -0.39166668 0.54166663 -7.64239979 -0.39166668 1.16666663 -7.64239979 -0.54166669 0.54166663 -7.64239979 -0.54166669 1.16666663 -9.65906620 -0.54166669 0.54166663 -9.65906620 -0.54166669 1.16666663 -9.65906620 -0.39166668 0.54166663 -9.65906620 -0.39166668 1.16666663 -9.80906677 -0.39166668 0.54166663 -9.80906677 -0.39166668 1.16666663 -9.80906677 -0.54166669 0.54166663 -9.80906677 -0.54166669 1.16666663 -11.82573318 -0.54166669 0.54166663 -11.82573318 -0.54166669 1.16666663 -11.82573318 -0.39166668 0.54166663 -11.82573318 -0.39166668 1.16666663 -11.97573376 -0.39166668 0.54166663 -11.97573376 -0.39166668 1.16666663 -11.97573376 -0.54166669 0.54166663 -11.97573376 -0.54166669 1.16666663 -13.99240017 -0.54166669 0.54166663 -13.99240017 -0.54166669 1.16666663 -13.99240017 -0.39166668 0.54166663 -13.99240017 -0.39166668 1.16666663 -14.14239979 -0.39166668 0.54166663 -14.14239979 -0.39166668 1.16666663 -14.14239979 -0.54166669 0.54166663 -14.14239979 -0.54166669 1.16666663 -16.15906715 -0.54166669 0.54166663 -16.15906715 -0.54166669 1.16666663 -16.15906715 -0.39166668 0.54166663 -16.15906715 -0.39166668 1.16666663 -16.30906677 -0.39166668 0.54166663 -16.30906677 -0.39166668 1.16666663 -16.30906677 -0.54166669 0.54166663 -16.30906677 -0.54166669 1.16666663 -17.24239922 -0.54166669 0.54166663 -17.24239922 -0.54166669 1.16666663 -17.24239922 -0.39166668 0.54166663 -17.24239922 -0.39166668 1.16666663 -17.39240074 -0.39166668 0.54166663 -17.39240074 -0.39166668 1.16666663 -17.39240074 -0.54166669 0.54166663 -17.39240074 -0.54166669 1.16666663 -0.99239999 -0.54166669 -0.54166663 -0.99239999 -0.39166668 -0.54166663 -0.99239999 -0.54166669 -1.16666663 -0.99239999 -0.39166668 -1.16666663 -1.14240003 -0.39166668 -0.54166663 -1.14240003 -0.39166668 -1.16666663 -1.14240003 -0.54166669 -0.54166663 -1.14240003 -0.54166669 -1.16666663 -2.07573342 -0.54166669 -0.54166663 -2.07573342 -0.54166669 -1.16666663 -2.07573342 -0.39166668 -0.54166663 -2.07573342 -0.39166668 -1.16666663 -2.22573328 -0.39166668 -0.54166663 -2.22573328 -0.39166668 -1.16666663 -2.22573328 -0.54166669 -0.54166663 -2.22573328 -0.54166669 -1.16666663 -4.24240017 -0.54166669 -0.54166663 -4.24240017 -0.54166669 -1.16666663 -4.24240017 -0.39166668 -0.54166663 -4.24240017 -0.39166668 -1.16666663 -4.39239979 -0.39166668 -0.54166663 -4.39239979 -0.39166668 -1.16666663 -4.39239979 -0.54166669 -0.54166663 -4.39239979 -0.54166669 -1.16666663 -6.40906668 -0.54166669 -0.54166663 -6.40906668 -0.54166669 -1.16666663 -6.40906668 -0.39166668 -0.54166663 -6.40906668 -0.39166668 -1.16666663 -6.55906677 -0.39166668 -0.54166663 -6.55906677 -0.39166668 -1.16666663 -6.55906677 -0.54166669 -0.54166663 -6.55906677 -0.54166669 -1.16666663 -8.57573318 -0.54166669 -0.54166663 -8.57573318 -0.54166669 -1.16666663 -8.57573318 -0.39166668 -0.54166663 -8.57573318 -0.39166668 -1.16666663 -8.72573376 -0.39166668 -0.54166663 -8.72573376 -0.39166668 -1.16666663 -8.72573376 -0.54166669 -0.54166663 -8.72573376 -0.54166669 -1.16666663 -10.74240017 -0.54166669 -0.54166663 -10.74240017 -0.54166669 -1.16666663 -10.74240017 -0.39166668 -0.54166663 -10.74240017 -0.39166668 -1.16666663 -10.89239979 -0.39166668 -0.54166663 -10.89239979 -0.39166668 -1.16666663 -10.89239979 -0.54166669 -0.54166663 -10.89239979 -0.54166669 -1.16666663 -12.90906620 -0.54166669 -0.54166663 -12.90906620 -0.54166669 -1.16666663 -12.90906620 -0.39166668 -0.54166663 -12.90906620 -0.39166668 -1.16666663 -13.05906677 -0.39166668 -0.54166663 -13.05906677 -0.39166668 -1.16666663 -13.05906677 -0.54166669 -0.54166663 -13.05906677 -0.54166669 -1.16666663 -15.07573318 -0.54166669 -0.54166663 -15.07573318 -0.54166669 -1.16666663 -15.07573318 -0.39166668 -0.54166663 -15.07573318 -0.39166668 -1.16666663 -15.22573376 -0.39166668 -0.54166663 -15.22573376 -0.39166668 -1.16666663 -15.22573376 -0.54166669 -0.54166663 -15.22573376 -0.54166669 -1.16666663 -17.24239922 -0.54166669 -0.54166663 -17.24239922 -0.54166669 -1.16666663 -17.24239922 -0.39166668 -0.54166663 -17.24239922 -0.39166668 -1.16666663 -17.39240074 -0.39166668 -0.54166663 -17.39240074 -0.39166668 -1.16666663 -17.39240074 -0.54166669 -0.54166663 -17.39240074 -0.54166669 -1.16666663 -1.39240003 0.00000000 0.54166663 -0.95906669 0.43333334 0.54166663 -0.52573335 0.00000000 0.54166663 -2.25906658 0.00000000 0.54166663 -1.82573330 0.43333334 0.54166663 -3.12573338 0.00000000 0.54166663 -2.69239998 0.43333334 0.54166663 -3.99239993 0.00000000 0.54166663 -3.55906677 0.43333334 0.54166663 -4.85906649 0.00000000 0.54166663 -4.42573357 0.43333334 0.54166663 -5.72573328 0.00000000 0.54166663 -5.29239988 0.43333334 0.54166663 -6.59240007 0.00000000 0.54166663 -6.15906668 0.43333334 0.54166663 -7.45906687 0.00000000 0.54166663 -7.02573347 0.43333334 0.54166663 -8.32573318 0.00000000 0.54166663 -7.89239979 0.43333334 0.54166663 -9.19239998 0.00000000 0.54166663 -8.75906658 0.43333334 0.54166663 -10.05906677 0.00000000 0.54166663 -9.62573338 0.43333334 0.54166663 -10.92573357 0.00000000 0.54166663 -10.49240017 0.43333334 0.54166663 -11.79240036 0.00000000 0.54166663 -11.35906696 0.43333334 0.54166663 -12.65906620 0.00000000 0.54166663 -12.22573376 0.43333334 0.54166663 -13.52573299 0.00000000 0.54166663 -13.09239960 0.43333334 0.54166663 -14.39239979 0.00000000 0.54166663 -13.95906639 0.43333334 0.54166663 -15.25906658 0.00000000 0.54166663 -14.82573318 0.43333334 0.54166663 -16.12573242 0.00000000 0.54166663 -15.69239998 0.43333334 0.54166663 -16.55906677 0.43333334 0.54166663 -16.99239922 0.00000000 0.54166663 -17.42573357 0.43333334 0.54166663 -17.85906601 0.00000000 0.54166663 -0.52573335 0.00000000 -0.54166663 -0.95906669 0.43333334 -0.54166663 -1.39240003 0.00000000 -0.54166663 -1.82573330 0.43333334 -0.54166663 -2.25906658 0.00000000 -0.54166663 -2.69239998 0.43333334 -0.54166663 -3.12573338 0.00000000 -0.54166663 -3.99239993 0.00000000 -0.54166663 -4.42573357 0.43333334 -0.54166663 -4.85906649 0.00000000 -0.54166663 -5.72573328 0.00000000 -0.54166663 -6.15906668 0.43333334 -0.54166663 -6.59240007 0.00000000 -0.54166663 -7.02573347 0.43333334 -0.54166663 -7.45906687 0.00000000 -0.54166663 -8.32573318 0.00000000 -0.54166663 -8.75906658 0.43333334 -0.54166663 -9.19239998 0.00000000 -0.54166663 -10.05906677 0.00000000 -0.54166663 -10.49240017 0.43333334 -0.54166663 -10.92573357 0.00000000 -0.54166663 -11.35906696 0.43333334 -0.54166663 -11.79240036 0.00000000 -0.54166663 -12.65906620 0.00000000 -0.54166663 -13.09239960 0.43333334 -0.54166663 -13.52573299 0.00000000 -0.54166663 -14.39239979 0.00000000 -0.54166663 -14.82573318 0.43333334 -0.54166663 -15.25906658 0.00000000 -0.54166663 -15.69239998 0.43333334 -0.54166663 -16.12573242 0.00000000 -0.54166663 -16.99239922 0.00000000 -0.54166663 -17.42573357 0.43333334 -0.54166663 -17.85906601 0.00000000 -0.54166663 -16.55906677 0.43333334 -0.54166663 -13.95906639 0.43333334 -0.54166663 -12.22573376 0.43333334 -0.54166663 -9.62573338 0.43333334 -0.54166663 -7.89239979 0.43333334 -0.54166663 -5.29239988 0.43333334 -0.54166663 -3.55906677 0.43333334 -0.54166663 0.22436570 -0.54166669 0.54166663 0.22436570 -0.54166669 1.03739381 0.22436570 -0.54166669 1.16666663 0.01490915 -0.03599387 1.16666663 0.22436570 -0.54166669 -1.03739381 0.22436570 -0.54166669 -0.54166663 0.22436570 -0.54166669 -1.16666663 0.01490915 -0.03599387 -1.16666663 -0.03567612 0.08612976 0.54166663 -0.15398373 0.37174961 0.54166663 -0.03567612 0.08612976 -0.54166663 -0.15398373 0.37174961 -0.54166663 -0.15398373 0.37174961 0.38770731 -0.06213204 0.15000001 1.16666663 -0.41421358 1.00000000 1.31666660 -0.06213204 0.15000001 1.31666660 -0.06213204 0.15000001 1.31201440 -0.41421358 1.00000000 -1.31666660 -0.41421358 1.00000000 -1.17403159 -0.41421358 1.00000000 -1.16666663 -0.41421358 1.00000000 -0.57235396 -0.41421358 1.00000000 -0.54166663 -0.41421358 1.00000000 -0.51725889 -0.41421358 1.00000000 0.54166663 -0.41421358 1.00000000 0.57235396 -0.41421358 1.00000000 1.16666663 -0.41421358 1.00000000 1.17403159 -0.06213204 0.15000001 -1.16666663 -0.06213204 0.15000001 -1.31201440 -0.06213204 0.15000001 -1.31666660 -18.60916572 -0.54166669 0.67093927 -18.60916572 -0.54166669 0.54166663 -18.60916572 -0.54166669 1.16666663 -18.39970909 -0.03599382 1.16666663 -18.60916572 -0.54166669 -0.54166663 -18.60916572 -0.54166669 -0.67093927 -18.60916572 -0.54166669 -1.16666663 -18.39970909 -0.03599382 -1.16666663 -18.23081627 0.37174939 0.54166663 -18.23081627 0.37174939 -0.54166663 -18.23081627 0.37174939 -0.38770676 -18.32266790 0.15000001 1.16666663 -17.97058625 1.00000000 1.13597931 -17.97058625 1.00000000 1.16666663 -17.97058625 1.00000000 1.31666660 -18.32266790 0.15000001 1.31666660 -17.97058625 1.00000000 1.30930165 -18.32266790 0.15000001 1.17131883 -18.32266790 0.15000001 -1.16666663 -17.97058625 1.00000000 -1.16666663 -17.97058625 1.00000000 -1.13597931 -18.32266790 0.15000001 -1.31666660 -17.97058625 1.00000000 -1.31666660 -17.97058625 1.00000000 -1.30930165 -18.32266790 0.15000001 -1.17131883 -17.97058625 1.00000000 0.54166663 -17.97058625 1.00000000 -0.54166663 -17.97058625 1.00000000 0.51725888
POLYGONS 344 1596
3 0 1 2 
3 3 1 0 
3 3 4 1 
3 5 4 3 
3 5 6 4 
3 7 6 5 
3 7 8 6 
3 9 8 7 
3 9 10 8 
3 11 10 9 
3 11 12 10 
3 13 12 11 
3 13 14 12 
3 15 14 13 
3 15 16 14 
3 17 16 15 
3 17 18 16 
3 19 18 17 
3 19 20 18 
3 21 20 19 
3 21 22 20 
3 23 22 21 
3 23 24 22 
3 25 24 23 
3 25 26 24 
3 27 26 25 
3 27 28 26 
3 29 28 27 
3 29 30 28 
3 31 30 29 
3 31 32 30 
3 33 32 31 
3 33 34 32 
3 35 34 33 
3 35 36 34 
3 37 36 35 
3 37 38 36 
3 39 38 37 
3 39 40 38 
3 41 40 39 
3 41 42 40 
3 43 42 41 
3 43 44 42 
3 45 44 43 
3 45 46 44 
3 47 46 45 
3 47 48 46 
3 49 48 47 
3 49 50 48 
3 51 50 49 
3 51 52 50 
3 53 52 51 
3 53 54 52 
3 55 54 53 
3 55 56 54 
3 57 56 55 
3 57 58 56 
3 59 58 57 
3 59 60 58 
3 61 60 59 
3 61 62 60 
3 63 62 61 
3 63 64 62 
3 65 64 63 
3 65 66 64 
3 67 66 65 
3 67 68 66 
3 69 68 67 
3 69 70 68 
3 71 70 69 
4 11 9 7 5 
4 19 17 15 13 
4 27 25 23 21 
4 35 33 31 29 
4 43 41 39 37 
4 51 49 47 45 
4 59 57 55 53 
4 67 65 63 61 
3 72 73 74 
3 74 73 75 
3 73 76 75 
3 75 76 77 
3 76 78 77 
3 77 78 79 
3 78 80 79 
3 79 80 81 
3 80 82 81 
3 81 82 83 
3 82 84 83 
3 83 84 85 
3 84 86 85 
3 85 86 87 
3 86 88 87 
3 87 88 89 
3 88 90 89 
3 89 90 91 
3 90 92 91 
3 91 92 93 
3 92 94 93 
3 93 94 95 
3 94 96 95 
3 95 96 97 
3 96 98 97 
3 97 98 99 
3 98 100 99 
3 99 100 101 
3 100 102 101 
3 101 102 103 
3 102 104 103 
3 103 104 105 
3 104 106 105 
3 105 106 107 
3 106 108 107 
3 107 108 109 
3 108 110 109 
3 109 110 111 
3 110 112 111 
3 111 112 113 
3 112 114 113 
3 113 114 115 
3 114 116 115 
3 115 116 117 
3 116 118 117 
3 117 118 119 
3 118 120 119 
3 119 120 121 
3 120 122 121 
3 121 122 123 
3 122 124 123 
3 123 124 125 
3 124 126 125 
3 125 126 127 
3 126 128 127 
3 127 128 129 
3 128 130 129 
3 129 130 131 
3 130 132 131 
3 131 132 133 
3 132 134 133 
3 133 134 135 
3 134 136 135 
3 135 136 137 
3 136 138 137 
3 137 138 139 
3 138 140 139 
3 139 140 141 
3 140 142 141 
3 141 142 143 
4 133 135 137 139 
4 125 127 129 131 
4 117 119 121 123 
4 109 111 113 115 
4 101 103 105 107 
4 93 95 97 99 
4 85 87 89 91 
4 77 79 81 83 
5 1 4 144 145 146 
4 4 147 148 144 
4 4 6 8 147 
5 8 10 149 150 147 
5 10 12 151 152 149 
6 12 14 16 18 153 151 
3 153 154 151 
5 18 20 155 156 153 
4 20 157 158 155 
4 20 22 24 157 
5 24 26 159 160 157 
5 26 28 161 162 159 
6 28 30 32 34 163 161 
3 163 164 161 
5 34 36 165 166 163 
4 36 167 168 165 
4 36 38 40 167 
5 40 42 169 170 167 
5 42 44 171 172 169 
6 44 46 48 50 173 171 
3 173 174 171 
5 50 52 175 176 173 
4 52 177 178 175 
4 52 54 56 177 
5 56 58 179 180 177 
4 58 60 181 179 
6 60 62 64 66 182 181 
4 66 68 183 182 
4 68 70 184 183 
5 185 186 187 76 73 
5 187 82 80 78 76 
4 187 188 189 82 
5 189 190 191 84 82 
6 191 192 90 88 86 84 
5 192 193 194 92 90 
6 194 195 98 96 94 92 
4 195 196 197 98 
5 197 198 199 100 98 
6 199 200 106 104 102 100 
5 200 201 202 108 106 
6 202 203 114 112 110 108 
4 203 204 205 114 
5 205 206 207 116 114 
6 207 208 122 120 118 116 
5 208 209 210 124 122 
6 210 211 130 128 126 124 
4 211 212 213 130 
5 213 214 215 132 130 
6 215 216 138 136 134 132 
4 216 217 140 138 
4 217 218 142 140 
3 215 219 216 
3 210 220 211 
3 207 221 208 
3 202 222 203 
3 199 223 200 
3 194 224 195 
3 191 225 192 
3 146 186 185 
3 186 146 145 
3 145 187 186 
3 187 145 144 
3 144 188 187 
3 188 144 148 
3 148 189 188 
3 189 148 147 
3 147 190 189 
3 190 147 150 
3 150 191 190 
3 191 150 149 
3 149 225 191 
3 225 149 152 
3 152 192 225 
3 192 152 151 
3 151 193 192 
3 193 151 154 
3 154 194 193 
3 194 154 153 
3 153 224 194 
3 224 153 156 
3 156 195 224 
3 195 156 155 
3 155 196 195 
3 196 155 158 
3 158 197 196 
3 197 158 157 
3 157 198 197 
3 198 157 160 
3 160 199 198 
3 199 160 159 
3 159 223 199 
3 223 159 162 
3 162 200 223 
3 200 162 161 
3 161 201 200 
3 201 161 164 
3 164 202 201 
3 202 164 163 
3 163 222 202 
3 222 163 166 
3 166 203 222 
3 203 166 165 
3 165 204 203 
3 204 165 168 
3 168 205 204 
3 205 168 167 
3 167 206 205 
3 206 167 170 
3 170 207 206 
3 207 170 169 
3 169 221 207 
3 221 169 172 
3 172 208 221 
3 208 172 171 
3 171 209 208 
3 209 171 174 
3 174 210 209 
3 210 174 173 
3 173 220 210 
3 220 173 176 
3 176 211 220 
3 211 176 175 
3 175 212 211 
3 212 175 178 
3 178 213 212 
3 213 178 177 
3 177 214 213 
3 214 177 180 
3 180 215 214 
3 215 180 179 
3 179 219 215 
3 219 179 181 
3 181 216 219 
3 216 181 182 
3 182 217 216 
3 217 182 183 
3 183 218 217 
3 218 183 184 
3 2 226 227 
4 0 2 227 228 
4 0 228 229 3 
3 72 230 231 
4 72 74 232 230 
4 74 75 233 232 
5 2 1 146 234 226 
3 146 235 234 
5 72 231 236 185 73 
3 185 236 237 
3 185 237 238 
4 185 238 235 146 
5 239 235 240 241 242 
7 239 229 228 227 226 234 235 
14 235 238 237 243 244 245 246 247 248 249 250 251 252 240 
5 237 253 254 255 243 
7 237 236 231 230 232 233 253 
4 71 256 257 70 
3 71 258 256 
4 71 69 259 258 
4 142 260 261 143 
3 143 261 262 
4 143 262 263 141 
4 70 257 264 184 
4 218 265 260 142 
4 184 266 265 218 
3 184 264 266 
22 69 67 61 59 53 51 45 43 37 35 29 27 21 19 13 11 5 3 229 239 267 259 
4 251 250 268 269 
4 241 240 270 271 
4 240 252 272 270 
4 242 241 271 273 
4 252 251 269 272 
4 239 242 273 267 
22 253 233 75 77 83 85 91 93 99 101 107 109 115 117 123 125 131 133 139 141 263 274 
4 246 245 275 276 
4 243 255 277 278 
4 244 243 278 279 
4 255 254 280 277 
4 245 244 279 275 
4 254 253 274 280 
4 250 249 281 268 
4 247 246 276 282 
4 248 247 282 283 
4 249 248 283 281 
6 265 274 263 262 261 260 
5 265 278 277 280 274 
14 265 266 264 270 272 269 268 281 283 282 276 275 279 278 
5 264 267 273 271 270 
6 264 257 256 258 259 267 

CELL_DATA 344
FIELD FieldData 2
OrigCellIdsA 1 344 int
0 1 2 3 4 5 6 7 8 
9 10 11 12 13 14 15 16 17 
18 19 20 21 22 23 24 25 26 
27 28 29 30 31 32 33 34 35 
36 37 38 39 40 41 42 43 44 
45 46 47 48 49 50 51 52 53 
54 55 56 57 58 59 60 61 62 
63 64 65 66 67 68 69 73 74 
75 76 77 78 79 80 85 86 87 
88 89 90 91 92 93 94 95 96 
97 98 99 100 101 102 103 104 105 
106 107 108 109 110 111 112 113 114 
115 116 117 118 119 120 121 122 123 
124 125 126 127 128 129 130 131 132 
133 134 135 136 137 138 139 140 141 
142 143 144 145 146 147 148 149 150 
151 152 153 154 159 160 161 162 163 
164 165 166 170 171 172 173 174 175 
176 177 178 179 180 181 182 183 184 
185 186 187 188 189 190 191 192 193 
194 195 196 197 198 201 202 203 204 
205 206 207 208 209 210 211 212 213 
214 215 216 217 218 219 220 221 222 
225 226 227 228 229 230 231 232 233 
234 235 236 237 238 239 240 241 242 
243 244 245 246 247 248 249 250 251 
252 253 254 255 256 257 258 259 260 
261 262 263 264 265 266 267 268 269 
270 271 272 273 274 275 276 277 278 
279 280 281 282 283 284 285 286 287 
288 289 290 291 292 293 294 295 296 
297 298 299 300 301 302 303 304 305 
306 307 308 309 310 311 318 319 320 
328 329 331 338 339 341 342 344 345 
348 349 350 351 352 70 71 81 155 
156 158 199 223 312 313 321 322 323 
324 325 326 327 330 332 333 334 335 
336 337 340 343 346 347 -1 -1 -1 
-1 -1 
OrigCellIdsB 1 344 int
-1 -1 -1 -1 -1 -1 -1 -1 -1 
-1 -1 -1 -1 -1 -1 -1 -1 -1 
-1 -1 -1 -1 -1 -1 -1 -1 -1 
-1 -1 -1 -1 -1 -1 -1 -1 -1 
-1 -1 -1 -1 -1 -1 -1 -1 -1 
-1 -1 -1 -1 -1 -1 -1 -1 -1 
-1 -1 -1 -1 -1 -1 -1 -1 -1 
-1 -1 -1 -1 -1 -1 -1 -1 -1 
-1 -1 -1 -1 -1 -1 -1 -1 -1 
-1 -1 -1 -1 -1 -1 -1 -1 -1 
-1 -1 -1 -1 -1 -1 -1 -1 -1 
-1 -1 -1 -1 -1 -1 -1 -1 -1 
-1 -1 -1 -1 -1 -1 -1 -1 -1 
-1 -1 -1 -1 -1 -1 -1 -1 -1 
-1 -1 -1 -1 -1 -1 -1 -1 -1 
-1 -1 -1 -1 -1 -1 -1 -1 -1 
-1 -1 -1 -1 -1 -1 -1 -1 -1 
-1 -1 -1 -1 -1 -1 -1 -1 -1 
-1 -1 -1 -1 -1 -1 -1 -1 -1 
-1 -1 -1 -1 -1 -1 -1 -1 -1 
-1 -1 -1 -1 -1 -1 -1 -1 -1 
-1 -1 -1 -1 -1 -1 -1 -1 -1 
-1 -1 -1 -1 -1 -1 -1 -1 -1 
-1 -1 -1 -1 -1 -1 -1 -1 -1 
-1 -1 -1 -1 -1 -1 -1 -1 -1 
-1 -1 -1 -1 -1 -1 -1 -1 -1 
-1 -1 -1 -1 -1 -1 -1 -1 -1 
-1 -1 -1 -1 -1 -1 -1 -1 -1 
-1 -1 -1 -1 -1 -1 -1 -1 -1 
-1 -1 -1 -1 -1 -1 -1 -1 -1 
-1 -1 -1 -1 -1 -1 -1 -1 -1 
-1 -1 -1 -1 -1 -1 -1 -1 -1 
-1 -1 -1 -1 -1 -1 -1 -1 -1 
-1 -1 -1 -1 -1 -1 -1 -1 -1 
-1 -1 -1 -1 -1 -1 -1 -1 -1 
-1 -1 -1 -1 -1 -1 -1 -1 -1 
-1 -1 -1 -1 -1 -1 -1 -1 -1 
-1 -1 -1 -1 -1 -1 0 0 0 
0 0 
POINT_DATA 284
SCALARS RegionId vtkIdType
LOOKUP_TABLE default
0 0 0 0 0 0 0 0 0 
0 0 0 0 0 0 0 0 0 
0 0 0 0 0 0 0 0 0 
0 0 0 0 0 0 0 0 0 
0 0 0 0 0 0 0 0 0 
0 0 0 0 0 0 0 0 0 
0 0 0 0 0 0 0 0 0 
0 0 0 0 0 0 0 0 0 
0 0 0 0 0 0 0 0 0 
0 0 0 0 0 0 0 0 0 
0 0 0 0 0 0 0 0 0 
0 0 0 0 0 0 0 0 0 
0 0 0 0 0 0 0 0 0 
0 0 0 0 0 0 0 0 0 
0 0 0 0 0 0 0 0 0 
0 0 0 0 0 0 0 0 0 
0 0 0 0 0 0 0 0 0 
0 0 0 0 0 0 0 0 0 
0 0 0 0 0 0 0 0 0 
0 0 0 0 0 0 0 0 0 
0 0 0 0 0 0 0 0 0 
0 0 0 0 0 0 0 0 0 
0 0 0 0 0 0 0 0 0 
0 0 0 0 0 0 0 0 0 
0 0 0 0 0 0 0 0 0 
0 0 0 0 0 0 0 0 0 
0 0 0 0 0 0 0 0 0 
0 0 0 0 0 0 0 0 0 
0 0 0 0 0 0 0 0 0 
0 0 0 0 0 0 0 0 0 
0 0 0 0 0 0 0 0 0 
0 0 0 0 0 
