# vtk DataFile Version 4.0
vtk output
ASCII
DATASET POLYDATA
POINTS 98 double
0.466667 -0.541667 1.16667 0.466667 -0.391667 0.541667 0.466667 -0.541667 0.541667 
0.466667 -0.391667 1.16667 0.616667 -0.391667 0.541667 0.616667 -0.391667 1.16667 
0.616667 -0.541667 0.541667 0.616667 -0.541667 1.16667 1.55 -0.541667 0.541667 
1.55 -0.541667 1.16667 1.55 -0.391667 0.541667 1.55 -0.391667 1.16667 
1.7 -0.391667 0.541667 1.7 -0.391667 1.16667 1.7 -0.541667 0.541667 
1.7 -0.541667 1.16667 4.25 -0.541667 0.541667 -0.541667 -0.541667 1.16667 
3.4 0.15 1.16667 3.4 -0.541667 1.16667 4.25 1 0.541667 
4.25 -0.541667 1.16667 4.25 1 1.16667 3.4 -0.541667 1.31667 
3.4 0.15 1.31667 4.25 -0.541667 1.31667 4.25 1 1.31667 
0.466667 -0.541667 -0.541667 0.466667 -0.391667 -0.541667 0.466667 -0.541667 -1.16667 
0.466667 -0.391667 -1.16667 0.616667 -0.391667 -0.541667 0.616667 -0.391667 -1.16667 
0.616667 -0.541667 -0.541667 0.616667 -0.541667 -1.16667 1.55 -0.541667 -0.541667 
1.55 -0.541667 -1.16667 1.55 -0.391667 -0.541667 1.55 -0.391667 -1.16667 
1.7 -0.391667 -0.541667 1.7 -0.391667 -1.16667 1.7 -0.541667 -0.541667 
1.7 -0.541667 -1.16667 4.25 -0.541667 -0.541667 -0.541667 -0.541667 -1.16667 
3.4 -0.541667 -1.16667 3.4 0.15 -1.16667 4.25 1 -0.541667 
4.25 1 -1.16667 4.25 -0.541667 -1.16667 3.4 0.15 -1.31667 
3.4 -0.541667 -1.31667 4.25 -0.541667 -1.31667 4.25 1 -1.31667 
0.866667 0.433333 0.541667 0.433333 0 0.541667 1.3 0 0.541667 
2.16667 0 0.541667 1.73333 0.433333 0.541667 3.03333 0 0.541667 
2.6 0.433333 0.541667 3.9 0 0.541667 3.46667 0.433333 0.541667 
4.25 0.35 0.541667 0.433333 0 -0.541667 0.866667 0.433333 -0.541667 
1.3 0 -0.541667 1.73333 0.433333 -0.541667 2.16667 0 -0.541667 
3.03333 0 -0.541667 3.46667 0.433333 -0.541667 3.9 0 -0.541667 
4.25 0.35 -0.541667 2.6 0.433333 -0.541667 -0.541667 -0.541667 0.541667 
-0.0917115 -0.0917115 1.16667 0.15 0.15 1.16667 1 1 1.16667 
1 1 0.742754 0.15 0.15 1.31667 1 1 1.31667 
1 1 1.21493 0.15 0.15 1.29035 -0.541667 -0.541667 -0.541667 
0.15 0.15 -1.16667 -0.0917115 -0.0917115 -1.16667 1 1 -0.742754 
1 1 -1.16667 1 1 -1.31667 0.15 0.15 -1.31667 
1 1 -1.21493 0.15 0.15 -1.29035 0.216667 0.216667 0.541667 
0.216667 0.216667 -0.541667 1 1 0.541667 1 1 -0.541667 
0.216667 0.216667 2.98023e-08 1 1 -0.286765 
POLYGONS 121 555
3 0 1 2 
3 3 1 0 
3 3 4 1 
3 5 4 3 
3 5 6 4 
3 7 6 5 
3 7 8 6 
3 9 8 7 
3 9 10 8 
3 11 10 9 
3 11 12 10 
3 13 12 11 
3 13 14 12 
3 15 14 13 
3 15 16 14 
3 0 2 17 
4 11 9 7 5 
4 18 19 15 13 
3 20 21 22 
4 16 15 19 21 
3 23 19 24 
3 25 21 23 
3 26 22 25 
3 24 19 18 
3 23 21 19 
3 25 22 21 
3 27 28 29 
3 29 28 30 
3 28 31 30 
3 30 31 32 
3 31 33 32 
3 32 33 34 
3 33 35 34 
3 34 35 36 
3 35 37 36 
3 36 37 38 
3 37 39 38 
3 38 39 40 
3 39 41 40 
3 40 41 42 
3 41 43 42 
3 44 27 29 
4 42 45 46 40 
4 32 34 36 38 
3 47 48 49 
4 42 43 49 45 
3 50 45 51 
3 51 49 52 
3 52 48 53 
3 46 45 50 
3 45 49 51 
3 49 48 52 
4 1 4 54 55 
6 4 6 8 10 56 54 
5 10 12 57 58 56 
5 12 14 16 59 57 
3 59 60 57 
4 16 61 62 59 
3 16 63 61 
4 64 65 31 28 
6 65 66 37 35 33 31 
5 66 67 68 39 37 
5 68 69 43 41 39 
4 69 70 71 43 
3 71 72 43 
3 68 73 69 
4 21 20 63 16 
4 43 72 47 49 
3 55 65 64 
3 65 55 54 
3 54 66 65 
3 66 54 56 
3 56 67 66 
3 67 56 58 
3 58 68 67 
3 68 58 57 
3 57 73 68 
3 73 57 60 
3 60 69 73 
3 69 60 59 
3 59 70 69 
3 70 59 62 
3 62 71 70 
3 71 62 61 
3 61 72 71 
3 72 61 63 
3 63 47 72 
3 47 63 20 
3 2 74 17 
4 0 17 75 3 
7 18 13 11 5 3 75 76 
3 22 77 78 
4 79 80 26 24 
4 26 25 23 24 
3 26 80 81 
4 24 18 82 79 
4 26 81 77 22 
3 18 76 82 
3 27 44 83 
7 46 84 85 30 32 38 40 
4 29 30 85 44 
3 48 86 87 
4 51 52 53 50 
4 53 88 89 50 
3 53 90 88 
4 46 50 89 91 
4 48 87 90 53 
3 46 91 84 
5 2 1 55 92 74 
5 27 83 93 64 28 
4 22 78 94 20 
4 47 95 86 48 
3 64 93 96 
4 64 96 92 55 
4 20 97 95 47 
3 20 94 97 
5 76 92 80 79 82 
5 76 75 17 74 92 
14 92 96 93 88 90 87 86 95 97 94 78 77 81 80 
5 93 84 91 89 88 
5 93 83 44 85 84 

CELL_DATA 121
FIELD FieldData 2
OrigCellIdsA 1 121 int
0 1 2 3 4 5 6 7 8 
9 10 11 12 13 14 17 20 21 
22 25 27 28 29 33 34 35 39 
40 41 42 43 44 45 46 47 48 
49 50 51 52 53 56 57 59 61 
63 66 67 68 72 73 74 80 81 
82 83 84 85 86 88 89 90 91 
92 93 94 96 99 102 103 104 105 
106 107 108 109 110 111 112 113 114 
115 116 117 118 119 120 121 16 18 
19 23 26 26 30 32 36 38 55 
58 60 62 65 65 69 71 75 77 
79 87 97 98 100 101 122 123 -1 
-1 -1 -1 -1 
OrigCellIdsB 1 121 int
-1 -1 -1 -1 -1 -1 -1 -1 -1 
-1 -1 -1 -1 -1 -1 -1 -1 -1 
-1 -1 -1 -1 -1 -1 -1 -1 -1 
-1 -1 -1 -1 -1 -1 -1 -1 -1 
-1 -1 -1 -1 -1 -1 -1 -1 -1 
-1 -1 -1 -1 -1 -1 -1 -1 -1 
-1 -1 -1 -1 -1 -1 -1 -1 -1 
-1 -1 -1 -1 -1 -1 -1 -1 -1 
-1 -1 -1 -1 -1 -1 -1 -1 -1 
-1 -1 -1 -1 -1 -1 -1 -1 -1 
-1 -1 -1 -1 -1 -1 -1 -1 -1 
-1 -1 -1 -1 -1 -1 -1 -1 -1 
-1 -1 -1 -1 -1 -1 -1 -1 0 
0 0 0 0 
POINT_DATA 98
SCALARS RegionId vtkIdType
LOOKUP_TABLE default
0 0 0 0 0 0 0 0 0 
0 0 0 0 0 0 0 0 0 
0 0 0 0 0 0 0 0 0 
0 0 0 0 0 0 0 0 0 
0 0 0 0 0 0 0 0 0 
0 0 0 0 0 0 0 0 0 
0 0 0 0 0 0 0 0 0 
0 0 0 0 0 0 0 0 0 
0 0 0 0 0 0 0 0 0 
0 0 0 0 0 0 0 0 0 
0 0 0 0 0 0 0 0 
