# vtk DataFile Version 4.0
vtk output
ASCII
DATASET POLYDATA
POINTS 290 double
-0.46666667 -0.54166669 1.16666663 -0.46666667 -0.39166668 0.54166663 -0.46666667 -0.54166669 0.54166663 -0.46666667 -0.39166668 1.16666663 -0.61666667 -0.39166668 0.54166663 -0.61666667 -0.39166668 1.16666663 -0.61666667 -0.54166669 0.54166663 -0.61666667 -0.54166669 1.16666663 -1.54999995 -0.54166669 0.54166663 -1.54999995 -0.54166669 1.16666663 -1.54999995 -0.39166668 0.54166663 -1.54999995 -0.39166668 1.16666663 -1.70000005 -0.39166668 0.54166663 -1.70000005 -0.39166668 1.16666663 -1.70000005 -0.54166669 0.54166663 -1.70000005 -0.54166669 1.16666663 -2.63333344 -0.54166669 0.54166663 -2.63333344 -0.54166669 1.16666663 -2.63333344 -0.39166668 0.54166663 -2.63333344 -0.39166668 1.16666663 -2.78333330 -0.39166668 0.54166663 -2.78333330 -0.39166668 1.16666663 -2.78333330 -0.54166669 0.54166663 -2.78333330 -0.54166669 1.16666663 -3.71666670 -0.54166669 0.54166663 -3.71666670 -0.54166669 1.16666663 -3.71666670 -0.39166668 0.54166663 -3.71666670 -0.39166668 1.16666663 -3.86666656 -0.39166668 0.54166663 -3.86666656 -0.39166668 1.16666663 -3.86666656 -0.54166669 0.54166663 -3.86666656 -0.54166669 1.16666663 -4.80000019 -0.54166669 0.54166663 -4.80000019 -0.54166669 1.16666663 -4.80000019 -0.39166668 0.54166663 -4.80000019 -0.39166668 1.16666663 -4.94999981 -0.39166668 0.54166663 -4.94999981 -0.39166668 1.16666663 -4.94999981 -0.54166669 0.54166663 -4.94999981 -0.54166669 1.16666663 -5.88333321 -0.54166669 0.54166663 -5.88333321 -0.54166669 1.16666663 -5.88333321 -0.39166668 0.54166663 -5.88333321 -0.39166668 1.16666663 -6.03333330 -0.39166668 0.54166663 -6.03333330 -0.39166668 1.16666663 -6.03333330 -0.54166669 0.54166663 -6.03333330 -0.54166669 1.16666663 -6.96666670 -0.54166669 0.54166663 -6.96666670 -0.54166669 1.16666663 -6.96666670 -0.39166668 0.54166663 -6.96666670 -0.39166668 1.16666663 -7.11666679 -0.39166668 0.54166663 -7.11666679 -0.39166668 1.16666663 -7.11666679 -0.54166669 0.54166663 -7.11666679 -0.54166669 1.16666663 -8.05000019 -0.54166669 0.54166663 -8.05000019 -0.54166669 1.16666663 -8.05000019 -0.39166668 0.54166663 -8.05000019 -0.39166668 1.16666663 -8.19999981 -0.39166668 0.54166663 -8.19999981 -0.39166668 1.16666663 -8.19999981 -0.54166669 0.54166663 -8.19999981 -0.54166669 1.16666663 -9.13333321 -0.54166669 0.54166663 -9.13333321 -0.54166669 1.16666663 -9.13333321 -0.39166668 0.54166663 -9.13333321 -0.39166668 1.16666663 -9.28333378 -0.39166668 0.54166663 -9.28333378 -0.39166668 1.16666663 -9.28333378 -0.54166669 0.54166663 -9.28333378 -0.54166669 1.16666663 -10.21666622 -0.54166669 0.54166663 -10.21666622 -0.54166669 1.16666663 -10.21666622 -0.39166668 0.54166663 -10.21666622 -0.39166668 1.16666663 -10.36666679 -0.39166668 0.54166663 -10.36666679 -0.39166668 1.16666663 -10.36666679 -0.54166669 0.54166663 -10.36666679 -0.54166669 1.16666663 -11.30000019 -0.54166669 0.54166663 -11.30000019 -0.54166669 1.16666663 -11.30000019 -0.39166668 0.54166663 -11.30000019 -0.39166668 1.16666663 -11.44999981 -0.39166668 0.54166663 -11.44999981 -0.39166668 1.16666663 -11.44999981 -0.54166669 0.54166663 -11.44999981 -0.54166669 1.16666663 -12.45833302 -0.54166669 0.54166663 -12.45833302 -0.54166669 1.16666663 0.54166669 -0.54166669 1.16666663 -12.45833302 1.00000000 0.54166663 -12.45833302 0.15000001 1.16666663 -12.45833302 1.00000000 1.16666663 -12.45833302 1.00000000 1.31666660 -12.45833302 0.15000001 1.31666660 -0.46666667 -0.54166669 -0.54166663 -0.46666667 -0.39166668 -0.54166663 -0.46666667 -0.54166669 -1.16666663 -0.46666667 -0.39166668 -1.16666663 -0.61666667 -0.39166668 -0.54166663 -0.61666667 -0.39166668 -1.16666663 -0.61666667 -0.54166669 -0.54166663 -0.61666667 -0.54166669 -1.16666663 -1.54999995 -0.54166669 -0.54166663 -1.54999995 -0.54166669 -1.16666663 -1.54999995 -0.39166668 -0.54166663 -1.54999995 -0.39166668 -1.16666663 -1.70000005 -0.39166668 -0.54166663 -1.70000005 -0.39166668 -1.16666663 -1.70000005 -0.54166669 -0.54166663 -1.70000005 -0.54166669 -1.16666663 -2.63333344 -0.54166669 -0.54166663 -2.63333344 -0.54166669 -1.16666663 -2.63333344 -0.39166668 -0.54166663 -2.63333344 -0.39166668 -1.16666663 -2.78333330 -0.39166668 -0.54166663 -2.78333330 -0.39166668 -1.16666663 -2.78333330 -0.54166669 -0.54166663 -2.78333330 -0.54166669 -1.16666663 -3.71666670 -0.54166669 -0.54166663 -3.71666670 -0.54166669 -1.16666663 -3.71666670 -0.39166668 -0.54166663 -3.71666670 -0.39166668 -1.16666663 -3.86666656 -0.39166668 -0.54166663 -3.86666656 -0.39166668 -1.16666663 -3.86666656 -0.54166669 -0.54166663 -3.86666656 -0.54166669 -1.16666663 -4.80000019 -0.54166669 -0.54166663 -4.80000019 -0.54166669 -1.16666663 -4.80000019 -0.39166668 -0.54166663 -4.80000019 -0.39166668 -1.16666663 -4.94999981 -0.39166668 -0.54166663 -4.94999981 -0.39166668 -1.16666663 -4.94999981 -0.54166669 -0.54166663 -4.94999981 -0.54166669 -1.16666663 -5.88333321 -0.54166669 -0.54166663 -5.88333321 -0.54166669 -1.16666663 -5.88333321 -0.39166668 -0.54166663 -5.88333321 -0.39166668 -1.16666663 -6.03333330 -0.39166668 -0.54166663 -6.03333330 -0.39166668 -1.16666663 -6.03333330 -0.54166669 -0.54166663 -6.03333330 -0.54166669 -1.16666663 -6.96666670 -0.54166669 -0.54166663 -6.96666670 -0.54166669 -1.16666663 -6.96666670 -0.39166668 -0.54166663 -6.96666670 -0.39166668 -1.16666663 -7.11666679 -0.39166668 -0.54166663 -7.11666679 -0.39166668 -1.16666663 -7.11666679 -0.54166669 -0.54166663 -7.11666679 -0.54166669 -1.16666663 -8.05000019 -0.54166669 -0.54166663 -8.05000019 -0.54166669 -1.16666663 -8.05000019 -0.39166668 -0.54166663 -8.05000019 -0.39166668 -1.16666663 -8.19999981 -0.39166668 -0.54166663 -8.19999981 -0.39166668 -1.16666663 -8.19999981 -0.54166669 -0.54166663 -8.19999981 -0.54166669 -1.16666663 -9.13333321 -0.54166669 -0.54166663 -9.13333321 -0.54166669 -1.16666663 -9.13333321 -0.39166668 -0.54166663 -9.13333321 -0.39166668 -1.16666663 -9.28333378 -0.39166668 -0.54166663 -9.28333378 -0.39166668 -1.16666663 -9.28333378 -0.54166669 -0.54166663 -9.28333378 -0.54166669 -1.16666663 -10.21666622 -0.54166669 -0.54166663 -10.21666622 -0.54166669 -1.16666663 -10.21666622 -0.39166668 -0.54166663 -10.21666622 -0.39166668 -1.16666663 -10.36666679 -0.39166668 -0.54166663 -10.36666679 -0.39166668 -1.16666663 -10.36666679 -0.54166669 -0.54166663 -10.36666679 -0.54166669 -1.16666663 -11.30000019 -0.54166669 -0.54166663 -11.30000019 -0.54166669 -1.16666663 -11.30000019 -0.39166668 -0.54166663 -11.30000019 -0.39166668 -1.16666663 -11.44999981 -0.39166668 -0.54166663 -11.44999981 -0.39166668 -1.16666663 -11.44999981 -0.54166669 -0.54166663 -11.44999981 -0.54166669 -1.16666663 -12.45833302 -0.54166669 -0.54166663 -12.45833302 -0.54166669 -1.16666663 0.54166669 -0.54166669 -1.16666663 -12.45833302 1.00000000 -0.54166663 -12.45833302 1.00000000 -1.16666663 -12.45833302 0.15000001 -1.16666663 -12.45833302 0.15000001 -1.31666660 -12.45833302 1.00000000 -1.31666660 -12.45833302 0.10833333 0.54166663 -12.45833302 0.10833333 -0.54166663 -0.43333334 0.00000000 0.54166663 -0.86666667 0.43333334 -0.54166663 -0.43333334 0.00000000 -0.54166663 -0.86666667 0.43333334 0.54166663 -1.29999995 0.00000000 -0.54166663 -1.29999995 0.00000000 0.54166663 -1.73333335 0.43333334 -0.54166663 -1.73333335 0.43333334 0.54166663 -2.16666675 0.00000000 -0.54166663 -2.16666675 0.00000000 0.54166663 -2.59999990 0.43333334 -0.54166663 -2.59999990 0.43333334 0.54166663 -3.03333330 0.00000000 -0.54166663 -3.03333330 0.00000000 0.54166663 -3.46666670 0.43333334 -0.54166663 -3.46666670 0.43333334 0.54166663 -3.90000010 0.00000000 -0.54166663 -3.90000010 0.00000000 0.54166663 -4.33333349 0.43333334 -0.54166663 -4.33333349 0.43333334 0.54166663 -4.76666689 0.00000000 -0.54166663 -4.76666689 0.00000000 0.54166663 -5.19999981 0.43333334 -0.54166663 -5.19999981 0.43333334 0.54166663 -5.63333321 0.00000000 -0.54166663 -5.63333321 0.00000000 0.54166663 -6.06666660 0.43333334 -0.54166663 -6.06666660 0.43333334 0.54166663 -6.50000000 0.00000000 -0.54166663 -6.50000000 0.00000000 0.54166663 -6.93333340 0.43333334 -0.54166663 -6.93333340 0.43333334 0.54166663 -7.36666679 0.00000000 -0.54166663 -7.36666679 0.00000000 0.54166663 -7.80000019 0.43333334 -0.54166663 -7.80000019 0.43333334 0.54166663 -8.23333359 0.00000000 -0.54166663 -8.23333359 0.00000000 0.54166663 -8.66666698 0.43333334 -0.54166663 -8.66666698 0.43333334 0.54166663 -9.10000038 0.00000000 -0.54166663 -9.10000038 0.00000000 0.54166663 -9.53333378 0.43333334 -0.54166663 -9.53333378 0.43333334 0.54166663 -9.96666622 0.00000000 -0.54166663 -9.96666622 0.00000000 0.54166663 -10.39999962 0.43333334 -0.54166663 -10.39999962 0.43333334 0.54166663 -10.83333302 0.00000000 -0.54166663 -10.83333302 0.00000000 0.54166663 -11.26666641 0.43333334 -0.54166663 -11.26666641 0.43333334 0.54166663 -11.69999981 0.00000000 -0.54166663 -11.69999981 0.00000000 0.54166663 -12.13333321 0.43333334 -0.54166663 -12.13333321 0.43333334 0.54166663 0.54166669 -0.54166669 0.54166663 -0.15000001 0.15000001 1.16666663 -0.15000001 0.15000001 1.31666660 -1.00000000 1.00000000 1.31666660 -1.00000000 1.00000000 1.18445509 -0.15000001 0.15000001 1.30868583 -1.00000000 1.00000000 1.16666663 0.54166669 -0.54166669 -0.54166663 -0.15000001 0.15000001 -1.16666663 -1.00000000 1.00000000 -1.31666660 -0.15000001 0.15000001 -1.31666660 -1.00000000 1.00000000 -1.18445509 -0.15000001 0.15000001 -1.30868583 -1.00000000 1.00000000 -1.16666663 -0.21666667 0.21666667 0.54166663 -0.21666667 0.21666667 -0.54166663 -0.21666667 0.21666667 0.00000000 -1.00000000 1.00000000 -0.61578522 -1.00000000 1.00000000 -0.54166663 -1.00000000 1.00000000 -0.45471011 -1.00000000 1.00000000 0.54166663 -1.00000000 1.00000000 0.61578522 -3.72916675 1.00000000 0.74699516 -3.72916675 1.00000000 0.75000000 -3.79166737 1.00000000 0.75000000 -3.79166737 1.00000000 -0.75000000 -3.72916675 1.00000000 -0.75000000 -3.72916675 1.00000000 -0.74699516 -8.72916698 1.00000000 0.75000000 -8.72916698 1.00000000 0.54166663 -3.72916675 1.00000000 0.54166663 -3.72916675 1.00000000 -0.54166663 -8.72916698 1.00000000 -0.54166663 -8.72916698 1.00000000 -0.75000000 -3.72916675 1.00000000 -0.21739127 -8.72916698 1.00000000 0.21739134 -8.72916698 2.50000000 0.75000000 -8.72916698 2.50000000 -0.75000000 -3.72916675 2.50000000 -0.75000000 -3.72916675 2.50000000 0.75000000
POLYGONS 281 1419
3 0 1 2 
3 3 1 0 
3 3 4 1 
3 5 4 3 
3 5 6 4 
3 7 6 5 
3 7 8 6 
3 9 8 7 
3 9 10 8 
3 11 10 9 
3 11 12 10 
3 13 12 11 
3 13 14 12 
3 15 14 13 
3 15 16 14 
3 17 16 15 
3 17 18 16 
3 19 18 17 
3 19 20 18 
3 21 20 19 
3 21 22 20 
3 23 22 21 
3 23 24 22 
3 25 24 23 
3 25 26 24 
3 27 26 25 
3 27 28 26 
3 29 28 27 
3 29 30 28 
3 31 30 29 
3 31 32 30 
3 33 32 31 
3 33 34 32 
3 35 34 33 
3 35 36 34 
3 37 36 35 
3 37 38 36 
3 39 38 37 
3 39 40 38 
3 41 40 39 
3 41 42 40 
3 43 42 41 
3 43 44 42 
3 45 44 43 
3 45 46 44 
3 47 46 45 
3 47 48 46 
3 49 48 47 
3 49 50 48 
3 51 50 49 
3 51 52 50 
3 53 52 51 
3 53 54 52 
3 55 54 53 
3 55 56 54 
3 57 56 55 
3 57 58 56 
3 59 58 57 
3 59 60 58 
3 61 60 59 
3 61 62 60 
3 63 62 61 
3 63 64 62 
3 65 64 63 
3 65 66 64 
3 67 66 65 
3 67 68 66 
3 69 68 67 
3 69 70 68 
3 71 70 69 
3 71 72 70 
3 73 72 71 
3 73 74 72 
3 75 74 73 
3 75 76 74 
3 77 76 75 
3 77 78 76 
3 79 78 77 
3 79 80 78 
3 81 80 79 
3 81 82 80 
3 83 82 81 
3 83 84 82 
3 85 84 83 
3 85 86 84 
3 87 86 85 
3 87 88 86 
3 89 88 87 
3 0 2 90 
4 91 89 92 93 
3 94 93 95 
3 95 93 92 
3 96 97 98 
3 98 97 99 
3 97 100 99 
3 99 100 101 
3 100 102 101 
3 101 102 103 
3 102 104 103 
3 103 104 105 
3 104 106 105 
3 105 106 107 
3 106 108 107 
3 107 108 109 
3 108 110 109 
3 109 110 111 
3 110 112 111 
3 111 112 113 
3 112 114 113 
3 113 114 115 
3 114 116 115 
3 115 116 117 
3 116 118 117 
3 117 118 119 
3 118 120 119 
3 119 120 121 
3 120 122 121 
3 121 122 123 
3 122 124 123 
3 123 124 125 
3 124 126 125 
3 125 126 127 
3 126 128 127 
3 127 128 129 
3 128 130 129 
3 129 130 131 
3 130 132 131 
3 131 132 133 
3 132 134 133 
3 133 134 135 
3 134 136 135 
3 135 136 137 
3 136 138 137 
3 137 138 139 
3 138 140 139 
3 139 140 141 
3 140 142 141 
3 141 142 143 
3 142 144 143 
3 143 144 145 
3 144 146 145 
3 145 146 147 
3 146 148 147 
3 147 148 149 
3 148 150 149 
3 149 150 151 
3 150 152 151 
3 151 152 153 
3 152 154 153 
3 153 154 155 
3 154 156 155 
3 155 156 157 
3 156 158 157 
3 157 158 159 
3 158 160 159 
3 159 160 161 
3 160 162 161 
3 161 162 163 
3 162 164 163 
3 163 164 165 
3 164 166 165 
3 165 166 167 
3 166 168 167 
3 167 168 169 
3 168 170 169 
3 169 170 171 
3 170 172 171 
3 171 172 173 
3 172 174 173 
3 173 174 175 
3 174 176 175 
3 175 176 177 
3 176 178 177 
3 177 178 179 
3 178 180 179 
3 179 180 181 
3 180 182 181 
3 181 182 183 
3 182 184 183 
3 183 184 185 
3 186 96 98 
4 185 187 188 189 
3 190 188 191 
3 189 188 190 
4 89 91 192 88 
4 184 193 187 185 
3 194 195 196 
3 195 194 197 
3 197 198 195 
3 198 197 199 
3 199 200 198 
3 200 199 201 
3 201 202 200 
3 202 201 203 
3 203 204 202 
3 204 203 205 
3 205 206 204 
3 206 205 207 
3 207 208 206 
3 208 207 209 
3 209 210 208 
3 210 209 211 
3 211 212 210 
3 212 211 213 
3 213 214 212 
3 214 213 215 
3 215 216 214 
3 216 215 217 
3 217 218 216 
3 218 217 219 
3 219 220 218 
3 220 219 221 
3 221 222 220 
3 222 221 223 
3 223 224 222 
3 224 223 225 
3 225 226 224 
3 226 225 227 
3 227 228 226 
3 228 227 229 
3 229 230 228 
3 230 229 231 
3 231 232 230 
3 232 231 233 
3 233 234 232 
3 234 233 235 
3 235 236 234 
3 236 235 237 
3 237 238 236 
3 238 237 239 
3 239 240 238 
3 240 239 241 
3 241 242 240 
3 242 241 243 
3 243 244 242 
3 244 243 245 
3 245 246 244 
3 246 245 247 
3 247 248 246 
3 248 247 249 
3 249 193 248 
3 193 249 192 
3 192 187 193 
3 187 192 91 
3 2 250 90 
48 90 251 92 89 87 85 83 81 79 77 75 73 71 69 67 65 63 61 59 57 55 53 51 49 47 45 43 41 39 37 35 33 31 29 27 25 23 21 19 17 15 13 11 9 7 5 3 0 
4 94 95 252 253 
3 94 253 254 
4 95 92 255 252 
4 94 254 256 93 
3 92 251 255 
3 96 186 257 
48 98 99 101 103 105 107 109 111 113 115 117 119 121 123 125 127 129 131 133 135 137 139 141 143 145 147 149 151 153 155 157 159 161 163 165 167 169 171 173 175 177 179 181 183 185 189 258 186 
4 190 191 259 260 
3 191 261 259 
4 189 190 260 262 
4 188 263 261 191 
3 189 262 258 
76 2 1 4 6 8 10 12 14 16 18 20 22 24 26 28 30 32 34 36 38 40 42 44 46 48 50 52 54 56 58 60 62 64 66 68 70 72 74 76 78 80 82 84 86 88 192 249 247 245 243 241 239 237 235 233 231 229 227 225 223 221 219 217 215 213 211 209 207 205 203 201 199 197 194 264 250 
76 257 265 196 195 198 200 202 204 206 208 210 212 214 216 218 220 222 224 226 228 230 232 234 236 238 240 242 244 246 248 193 184 182 180 178 176 174 172 170 168 166 164 162 160 158 156 154 152 150 148 146 144 142 140 138 136 134 132 130 128 126 124 122 120 118 116 114 112 110 108 106 104 102 100 97 96 
3 196 265 266 
4 196 266 264 194 
24 265 257 186 258 262 260 259 261 263 267 268 269 270 271 256 254 253 252 255 251 90 250 264 266 
6 93 256 271 272 273 274 
6 188 275 276 277 267 263 
5 93 274 278 279 91 
4 271 270 280 272 
4 268 267 277 281 
5 187 282 283 275 188 
4 269 268 281 284 
4 91 285 282 187 
4 270 269 284 280 
3 91 279 285 
3 286 287 278 
3 286 288 287 
3 289 288 286 
3 289 276 288 
6 287 283 282 285 279 278 
5 287 288 276 275 283 
8 273 272 280 284 281 277 276 289 
5 289 286 278 274 273 

CELL_DATA 281
FIELD FieldData 2
OrigCellIdsA 1 281 int
0 1 2 3 4 5 6 7 8 
9 10 11 12 13 14 15 16 17 
18 19 20 21 22 23 24 25 26 
27 28 29 30 31 32 33 34 35 
36 37 38 39 40 41 42 43 44 
45 46 47 48 49 50 51 52 53 
54 55 56 57 58 59 60 61 62 
63 64 65 66 67 68 69 70 71 
72 73 74 75 76 77 78 79 80 
81 82 83 84 85 86 87 88 89 
90 91 92 93 94 95 96 97 98 
99 100 101 102 103 104 105 106 107 
108 109 110 111 112 113 114 115 116 
117 118 119 120 121 122 123 124 125 
126 127 128 129 130 131 132 133 134 
135 136 137 138 139 140 141 142 143 
144 145 146 147 148 149 150 151 152 
153 154 155 156 157 158 159 160 161 
162 163 164 165 166 167 168 169 170 
171 172 173 174 175 176 177 178 179 
180 181 182 183 184 185 186 187 188 
189 190 191 192 193 194 195 196 197 
198 199 200 201 202 203 204 205 206 
207 208 209 210 211 212 213 214 215 
216 217 218 219 220 221 222 223 224 
225 226 227 228 229 230 231 232 233 
234 235 236 237 238 239 240 241 242 
243 244 245 247 248 249 250 251 252 
253 255 256 257 258 259 260 262 264 
265 268 246 254 261 261 263 263 266 
266 267 267 -1 -1 -1 -1 -1 -1 
-1 -1 
OrigCellIdsB 1 281 int
-1 -1 -1 -1 -1 -1 -1 -1 -1 
-1 -1 -1 -1 -1 -1 -1 -1 -1 
-1 -1 -1 -1 -1 -1 -1 -1 -1 
-1 -1 -1 -1 -1 -1 -1 -1 -1 
-1 -1 -1 -1 -1 -1 -1 -1 -1 
-1 -1 -1 -1 -1 -1 -1 -1 -1 
-1 -1 -1 -1 -1 -1 -1 -1 -1 
-1 -1 -1 -1 -1 -1 -1 -1 -1 
-1 -1 -1 -1 -1 -1 -1 -1 -1 
-1 -1 -1 -1 -1 -1 -1 -1 -1 
-1 -1 -1 -1 -1 -1 -1 -1 -1 
-1 -1 -1 -1 -1 -1 -1 -1 -1 
-1 -1 -1 -1 -1 -1 -1 -1 -1 
-1 -1 -1 -1 -1 -1 -1 -1 -1 
-1 -1 -1 -1 -1 -1 -1 -1 -1 
-1 -1 -1 -1 -1 -1 -1 -1 -1 
-1 -1 -1 -1 -1 -1 -1 -1 -1 
-1 -1 -1 -1 -1 -1 -1 -1 -1 
-1 -1 -1 -1 -1 -1 -1 -1 -1 
-1 -1 -1 -1 -1 -1 -1 -1 -1 
-1 -1 -1 -1 -1 -1 -1 -1 -1 
-1 -1 -1 -1 -1 -1 -1 -1 -1 
-1 -1 -1 -1 -1 -1 -1 -1 -1 
-1 -1 -1 -1 -1 -1 -1 -1 -1 
-1 -1 -1 -1 -1 -1 -1 -1 -1 
-1 -1 -1 -1 -1 -1 -1 -1 -1 
-1 -1 -1 -1 -1 -1 -1 -1 -1 
-1 -1 -1 -1 -1 -1 -1 -1 -1 
-1 -1 -1 -1 -1 -1 -1 -1 -1 
-1 -1 -1 -1 -1 -1 -1 -1 -1 
-1 -1 -1 3 4 5 6 2 0 
7 1 
POINT_DATA 290
SCALARS RegionId vtkIdType
LOOKUP_TABLE default
0 0 0 0 0 0 0 0 0 
0 0 0 0 0 0 0 0 0 
0 0 0 0 0 0 0 0 0 
0 0 0 0 0 0 0 0 0 
0 0 0 0 0 0 0 0 0 
0 0 0 0 0 0 0 0 0 
0 0 0 0 0 0 0 0 0 
0 0 0 0 0 0 0 0 0 
0 0 0 0 0 0 0 0 0 
0 0 0 0 0 0 0 0 0 
0 0 0 0 0 0 0 0 0 
0 0 0 0 0 0 0 0 0 
0 0 0 0 0 0 0 0 0 
0 0 0 0 0 0 0 0 0 
0 0 0 0 0 0 0 0 0 
0 0 0 0 0 0 0 0 0 
0 0 0 0 0 0 0 0 0 
0 0 0 0 0 0 0 0 0 
0 0 0 0 0 0 0 0 0 
0 0 0 0 0 0 0 0 0 
0 0 0 0 0 0 0 0 0 
0 0 0 0 0 0 0 0 0 
0 0 0 0 0 0 0 0 0 
0 0 0 0 0 0 0 0 0 
0 0 0 0 0 0 0 0 0 
0 0 0 0 0 0 0 0 0 
0 0 0 0 0 0 0 0 0 
0 0 0 0 0 0 0 0 0 
0 0 0 0 0 0 0 0 0 
0 0 0 0 0 0 0 0 0 
0 0 0 0 0 0 0 0 0 
0 0 0 0 0 0 0 1 1 
1 1 
