# vtk DataFile Version 4.0
vtk output
ASCII
DATASET POLYDATA
POINTS 54 double
2.08333 1 0.541667 2.08333 -0.541667 1.16667 2.08333 1 1.16667 
2.08333 -0.541667 0.541667 -0.541667 -0.541667 1.16667 1.23333 -0.541667 1.16667 
1.23333 -0.541667 1.31667 1.23333 0.15 1.31667 2.08333 -0.541667 1.31667 
2.08333 1 1.31667 1.23333 0.15 1.16667 2.08333 1 -0.541667 
2.08333 1 -1.16667 2.08333 -0.541667 -1.16667 -0.541667 -0.541667 -1.16667 
2.08333 -0.541667 -0.541667 1.23333 -0.541667 -1.16667 1.23333 0.15 -1.31667 
1.23333 -0.541667 -1.31667 2.08333 -0.541667 -1.31667 2.08333 1 -1.31667 
1.23333 0.15 -1.16667 2.08333 0.0833333 0.541667 2.08333 0.0833333 -0.541667 
0.433333 0 0.541667 0.866667 0.433333 -0.541667 0.433333 0 -0.541667 
0.866667 0.433333 0.541667 1.3 0 -0.541667 1.3 0 0.541667 
1.73333 0.433333 -0.541667 1.73333 0.433333 0.541667 -0.541667 -0.541667 0.541667 
0.15 0.15 1.16667 1 1 1.16667 1 1 0.90873 
0.15 0.15 1.31667 1 1 1.31667 1 1 1.25476 
0.15 0.15 1.25822 -0.541667 -0.541667 -0.541667 0.15 0.15 -1.16667 
1 1 -0.90873 1 1 -1.16667 1 1 -1.31667 
0.15 0.15 -1.31667 1 1 -1.25476 0.15 0.15 -1.25822 
0.216667 0.216667 0.541667 0.216667 0.216667 -0.541667 1 1 0.541667 
1 1 -0.541667 0.216667 0.216667 2.98023e-08 1 1 -0.0216666 

POLYGONS 53 263
3 0 1 2 
4 3 4 5 1 
3 6 5 7 
3 8 1 6 
3 9 2 8 
3 7 5 10 
3 6 1 5 
3 8 2 1 
3 11 12 13 
4 14 15 13 16 
3 17 16 18 
3 18 13 19 
3 19 12 20 
3 21 16 17 
3 16 13 18 
3 13 12 19 
4 1 0 22 3 
4 15 23 11 13 
3 24 25 26 
3 25 24 27 
3 27 28 25 
3 28 27 29 
3 29 30 28 
3 30 29 31 
3 31 23 30 
3 23 31 22 
3 22 11 23 
3 11 22 0 
3 3 32 4 
4 4 33 10 5 
3 2 34 35 
6 9 8 6 7 36 37 
3 9 37 38 
4 7 10 39 36 
4 9 38 34 2 
3 10 33 39 
3 15 14 40 
4 16 21 41 14 
3 12 42 43 
6 17 18 19 20 44 45 
3 20 46 44 
4 21 17 45 47 
4 12 43 46 20 
3 21 47 41 
8 3 22 31 29 27 24 48 32 
8 40 49 26 25 28 30 23 15 
4 2 35 50 0 
4 11 51 42 12 
3 26 49 52 
4 26 52 48 24 
4 0 53 51 11 
3 0 50 53 
24 45 44 46 43 42 51 53 50 35 34 38 37 36 39 33 4 32 48 52 49 40 14 41 47 

CELL_DATA 53
FIELD FieldData 2
OrigCellIdsA 1 53 int
3 6 8 9 10 14 15 16 23 
26 28 29 30 34 35 36 42 45 
48 49 50 51 52 53 54 55 56 
57 1 2 4 7 11 13 17 19 
21 22 24 27 31 33 37 39 40 
41 43 44 46 47 58 59 -1 
OrigCellIdsB 1 53 int
-1 -1 -1 -1 -1 -1 -1 -1 -1 
-1 -1 -1 -1 -1 -1 -1 -1 -1 
-1 -1 -1 -1 -1 -1 -1 -1 -1 
-1 -1 -1 -1 -1 -1 -1 -1 -1 
-1 -1 -1 -1 -1 -1 -1 -1 -1 
-1 -1 -1 -1 -1 -1 -1 0 
POINT_DATA 54
SCALARS RegionId vtkIdType
LOOKUP_TABLE default
0 0 0 0 0 0 0 0 0 
0 0 0 0 0 0 0 0 0 
0 0 0 0 0 0 0 0 0 
0 0 0 0 0 0 0 0 0 
0 0 0 0 0 0 0 0 0 
0 0 0 0 0 0 0 0 0 

