# vtk DataFile Version 4.0
vtk output
ASCII
DATASET POLYDATA
POINTS 200 double
0.46666667 -0.54166669 0.54166663 0.46666667 -0.39166668 0.54166663 0.46666667 -0.54166669 1.16666663 0.46666667 -0.39166668 1.16666663 0.61666667 -0.39166668 0.54166663 0.61666667 -0.39166668 1.16666663 0.61666667 -0.54166669 0.54166663 0.61666667 -0.54166669 1.16666663 1.54999995 -0.54166669 0.54166663 1.54999995 -0.54166669 1.16666663 1.54999995 -0.39166668 0.54166663 1.54999995 -0.39166668 1.16666663 1.70000005 -0.39166668 0.54166663 1.70000005 -0.39166668 1.16666663 1.70000005 -0.54166669 0.54166663 1.70000005 -0.54166669 1.16666663 2.63333344 -0.54166669 0.54166663 2.63333344 -0.54166669 1.16666663 2.63333344 -0.39166668 0.54166663 2.63333344 -0.39166668 1.16666663 2.78333330 -0.39166668 0.54166663 2.78333330 -0.39166668 1.16666663 2.78333330 -0.54166669 0.54166663 2.78333330 -0.54166669 1.16666663 3.71666670 -0.54166669 0.54166663 3.71666670 -0.54166669 1.16666663 3.71666670 -0.39166668 0.54166663 3.71666670 -0.39166668 1.16666663 3.86666656 -0.39166668 0.54166663 3.86666656 -0.39166668 1.16666663 3.86666656 -0.54166669 0.54166663 3.86666656 -0.54166669 1.16666663 4.80000019 -0.54166669 0.54166663 4.80000019 -0.54166669 1.16666663 4.80000019 -0.39166668 0.54166663 4.80000019 -0.39166668 1.16666663 4.94999981 -0.39166668 0.54166663 4.94999981 -0.39166668 1.16666663 4.94999981 -0.54166669 0.54166663 4.94999981 -0.54166669 1.16666663 5.88333321 -0.54166669 0.54166663 5.88333321 -0.54166669 1.16666663 5.88333321 -0.39166668 0.54166663 5.88333321 -0.39166668 1.16666663 6.03333330 -0.39166668 0.54166663 6.03333330 -0.39166668 1.16666663 6.03333330 -0.54166669 0.54166663 6.03333330 -0.54166669 1.16666663 8.58333302 -0.54166669 0.54166663 8.58333302 -0.54166669 1.16666663 7.73333311 -0.54166669 1.16666663 8.58333302 1.00000000 1.16666663 8.58333302 1.00000000 0.54166663 7.73333311 0.15000001 1.31666660 7.73333311 -0.54166669 1.31666660 8.58333302 -0.54166669 1.31666660 8.58333302 1.00000000 1.31666660 7.73333311 0.15000001 1.16666663 0.46666667 -0.54166669 -1.16666663 0.46666667 -0.39166668 -0.54166663 0.46666667 -0.54166669 -0.54166663 0.46666667 -0.39166668 -1.16666663 0.61666667 -0.39166668 -0.54166663 0.61666667 -0.39166668 -1.16666663 0.61666667 -0.54166669 -0.54166663 0.61666667 -0.54166669 -1.16666663 1.54999995 -0.54166669 -0.54166663 1.54999995 -0.54166669 -1.16666663 1.54999995 -0.39166668 -0.54166663 1.54999995 -0.39166668 -1.16666663 1.70000005 -0.39166668 -0.54166663 1.70000005 -0.39166668 -1.16666663 1.70000005 -0.54166669 -0.54166663 1.70000005 -0.54166669 -1.16666663 2.63333344 -0.54166669 -0.54166663 2.63333344 -0.54166669 -1.16666663 2.63333344 -0.39166668 -0.54166663 2.63333344 -0.39166668 -1.16666663 2.78333330 -0.39166668 -0.54166663 2.78333330 -0.39166668 -1.16666663 2.78333330 -0.54166669 -0.54166663 2.78333330 -0.54166669 -1.16666663 3.71666670 -0.54166669 -0.54166663 3.71666670 -0.54166669 -1.16666663 3.71666670 -0.39166668 -0.54166663 3.71666670 -0.39166668 -1.16666663 3.86666656 -0.39166668 -0.54166663 3.86666656 -0.39166668 -1.16666663 3.86666656 -0.54166669 -0.54166663 3.86666656 -0.54166669 -1.16666663 4.80000019 -0.54166669 -0.54166663 4.80000019 -0.54166669 -1.16666663 4.80000019 -0.39166668 -0.54166663 4.80000019 -0.39166668 -1.16666663 4.94999981 -0.39166668 -0.54166663 4.94999981 -0.39166668 -1.16666663 4.94999981 -0.54166669 -0.54166663 4.94999981 -0.54166669 -1.16666663 5.88333321 -0.54166669 -0.54166663 5.88333321 -0.54166669 -1.16666663 5.88333321 -0.39166668 -0.54166663 5.88333321 -0.39166668 -1.16666663 6.03333330 -0.39166668 -0.54166663 6.03333330 -0.39166668 -1.16666663 6.03333330 -0.54166669 -0.54166663 6.03333330 -0.54166669 -1.16666663 8.58333302 -0.54166669 -0.54166663 7.73333311 -0.54166669 -1.16666663 8.58333302 -0.54166669 -1.16666663 8.58333302 1.00000000 -1.16666663 8.58333302 1.00000000 -0.54166663 7.73333311 -0.54166669 -1.31666660 7.73333311 0.15000001 -1.31666660 8.58333302 -0.54166669 -1.31666660 8.58333302 1.00000000 -1.31666660 7.73333311 0.15000001 -1.16666663 8.58333302 0.34999999 0.54166663 8.58333302 0.34999999 -0.54166663 0.43333334 0.00000000 -0.54166663 0.86666667 0.43333334 -0.54166663 0.43333334 0.00000000 0.54166663 0.86666667 0.43333334 0.54166663 1.29999995 0.00000000 -0.54166663 1.29999995 0.00000000 0.54166663 1.73333335 0.43333334 -0.54166663 1.73333335 0.43333334 0.54166663 2.16666675 0.00000000 -0.54166663 2.16666675 0.00000000 0.54166663 2.59999990 0.43333334 -0.54166663 2.59999990 0.43333334 0.54166663 3.03333330 0.00000000 -0.54166663 3.03333330 0.00000000 0.54166663 3.46666670 0.43333334 -0.54166663 3.46666670 0.43333334 0.54166663 3.90000010 0.00000000 -0.54166663 3.90000010 0.00000000 0.54166663 4.33333349 0.43333334 -0.54166663 4.33333349 0.43333334 0.54166663 4.76666689 0.00000000 -0.54166663 4.76666689 0.00000000 0.54166663 5.19999981 0.43333334 -0.54166663 5.19999981 0.43333334 0.54166663 5.63333321 0.00000000 -0.54166663 5.63333321 0.00000000 0.54166663 6.06666660 0.43333334 -0.54166663 6.06666660 0.43333334 0.54166663 6.50000000 0.00000000 -0.54166663 6.50000000 0.00000000 0.54166663 6.93333340 0.43333334 -0.54166663 6.93333340 0.43333334 0.54166663 7.36666679 0.00000000 -0.54166663 7.36666679 0.00000000 0.54166663 7.80000019 0.43333334 -0.54166663 7.80000019 0.43333334 0.54166663 8.23333359 0.00000000 -0.54166663 8.23333359 0.00000000 0.54166663 -0.22436570 -0.54166669 0.96999246 -0.22436570 -0.54166669 0.54166663 -0.22436570 -0.54166669 1.16666663 0.06213204 0.15000001 1.16666663 0.41421358 1.00000000 1.31666660 0.06213204 0.15000001 1.31666660 0.41421358 1.00000000 1.18237973 0.06213204 0.15000001 1.30572161 0.41421358 1.00000000 1.16666663 -0.22436570 -0.54166669 -0.54166663 -0.22436570 -0.54166669 -0.96999246 -0.22436570 -0.54166669 -1.16666663 0.06213204 0.15000001 -1.16666663 0.06213204 0.15000001 -1.31666660 0.41421358 1.00000000 -1.31666660 0.41421358 1.00000000 -1.18237973 0.06213204 0.15000001 -1.30572161 0.41421358 1.00000000 -1.16666663 0.12692040 0.30641294 0.54166663 0.12692040 0.30641294 -0.54166663 0.12692040 0.30641294 0.22436566 0.41421358 1.00000000 0.60713788 0.41421358 1.00000000 0.54166663 0.41421358 1.00000000 -0.48938725 0.41421358 1.00000000 -0.54166663 0.41421358 1.00000000 -0.60713788 2.50000046 1.00000000 0.75000000 1.29166663 1.00000000 0.75000000 1.29166663 1.00000000 0.66723741 1.29166663 1.00000000 -0.66723741 1.29166663 1.00000000 -0.75000000 2.50000046 1.00000000 -0.75000000 1.29166663 1.00000000 0.54166663 6.29166651 1.00000000 0.54166663 6.29166651 1.00000000 0.75000000 1.29166663 1.00000000 -0.54166663 6.29166651 1.00000000 -0.75000000 6.29166651 1.00000000 -0.54166663 1.29166663 1.00000000 -0.37864075 6.29166651 1.00000000 0.25242718 6.29166651 2.50000000 -0.75000000 6.29166651 2.50000000 0.75000000 1.29166663 2.50000000 -0.75000000 1.29166663 2.50000000 0.75000000
POLYGONS 191 969
3 0 1 2 
3 2 1 3 
3 1 4 3 
3 3 4 5 
3 4 6 5 
3 5 6 7 
3 6 8 7 
3 7 8 9 
3 8 10 9 
3 9 10 11 
3 10 12 11 
3 11 12 13 
3 12 14 13 
3 13 14 15 
3 14 16 15 
3 15 16 17 
3 16 18 17 
3 17 18 19 
3 18 20 19 
3 19 20 21 
3 20 22 21 
3 21 22 23 
3 22 24 23 
3 23 24 25 
3 24 26 25 
3 25 26 27 
3 26 28 27 
3 27 28 29 
3 28 30 29 
3 29 30 31 
3 30 32 31 
3 31 32 33 
3 32 34 33 
3 33 34 35 
3 34 36 35 
3 35 36 37 
3 36 38 37 
3 37 38 39 
3 38 40 39 
3 39 40 41 
3 40 42 41 
3 41 42 43 
3 42 44 43 
3 43 44 45 
3 44 46 45 
3 45 46 47 
3 46 48 47 
4 49 50 47 48 
3 51 49 52 
3 53 50 54 
3 54 49 55 
3 55 51 56 
3 57 50 53 
3 50 49 54 
3 49 51 55 
3 58 59 60 
3 61 59 58 
3 61 62 59 
3 63 62 61 
3 63 64 62 
3 65 64 63 
3 65 66 64 
3 67 66 65 
3 67 68 66 
3 69 68 67 
3 69 70 68 
3 71 70 69 
3 71 72 70 
3 73 72 71 
3 73 74 72 
3 75 74 73 
3 75 76 74 
3 77 76 75 
3 77 78 76 
3 79 78 77 
3 79 80 78 
3 81 80 79 
3 81 82 80 
3 83 82 81 
3 83 84 82 
3 85 84 83 
3 85 86 84 
3 87 86 85 
3 87 88 86 
3 89 88 87 
3 89 90 88 
3 91 90 89 
3 91 92 90 
3 93 92 91 
3 93 94 92 
3 95 94 93 
3 95 96 94 
3 97 96 95 
3 97 98 96 
3 99 98 97 
3 99 100 98 
3 101 100 99 
3 101 102 100 
3 103 102 101 
3 103 104 102 
3 105 104 103 
3 105 106 104 
4 107 108 106 105 
3 108 109 110 
3 111 107 112 
3 113 108 111 
3 114 109 113 
3 112 107 115 
3 111 108 107 
3 113 109 108 
4 48 116 52 49 
4 108 110 117 106 
3 118 119 120 
3 121 120 119 
3 119 122 121 
3 123 121 122 
3 122 124 123 
3 125 123 124 
3 124 126 125 
3 127 125 126 
3 126 128 127 
3 129 127 128 
3 128 130 129 
3 131 129 130 
3 130 132 131 
3 133 131 132 
3 132 134 133 
3 135 133 134 
3 134 136 135 
3 137 135 136 
3 136 138 137 
3 139 137 138 
3 138 140 139 
3 141 139 140 
3 140 142 141 
3 143 141 142 
3 142 144 143 
3 145 143 144 
3 144 146 145 
3 147 145 146 
3 146 148 147 
3 149 147 148 
3 148 150 149 
3 151 149 150 
3 150 152 151 
3 153 151 152 
3 152 154 153 
3 155 153 154 
3 154 117 155 
3 116 155 117 
3 117 110 116 
3 52 116 110 
3 156 157 0 
4 158 156 0 2 
28 159 158 2 3 5 7 9 11 13 15 17 19 21 23 25 27 29 31 33 35 37 39 41 43 45 47 50 57 
6 160 161 53 54 55 56 
3 162 160 56 
4 161 163 57 53 
4 51 164 162 56 
3 163 159 57 
3 165 166 60 
4 166 167 58 60 
28 167 168 115 107 105 103 101 99 97 95 93 91 89 87 85 83 81 79 77 75 73 71 69 67 65 63 61 58 
6 169 170 114 113 111 112 
3 170 171 114 
4 172 169 112 115 
4 114 171 173 109 
3 168 172 115 
47 157 174 120 121 123 125 127 129 131 133 135 137 139 141 143 145 147 149 151 153 155 116 48 46 44 42 40 38 36 34 32 30 28 26 24 22 20 18 16 14 12 10 8 6 4 1 0 
47 175 165 60 59 62 64 66 68 70 72 74 76 78 80 82 84 86 88 90 92 94 96 98 100 102 104 106 117 154 152 150 148 146 144 142 140 138 136 134 132 130 128 126 124 122 119 118 
3 176 175 118 
4 120 174 176 118 
26 175 176 174 157 156 158 159 163 161 160 162 164 177 178 179 180 181 173 171 170 169 172 168 167 166 165 
6 182 183 184 177 164 51 
6 173 181 185 186 187 109 
4 184 188 178 177 
5 52 189 190 182 51 
4 191 185 181 180 
5 109 187 192 193 110 
4 194 191 180 179 
4 110 193 195 52 
4 188 194 179 178 
3 195 189 52 
3 190 196 197 
3 196 198 197 
3 197 198 199 
3 198 186 199 
6 190 189 195 193 192 196 
5 192 187 186 198 196 
8 199 186 185 191 194 188 184 183 
5 183 182 190 197 199 

CELL_DATA 191
FIELD FieldData 2
OrigCellIdsA 1 191 int
0 1 2 3 4 5 6 7 8 
9 10 11 12 13 14 15 16 17 
18 19 20 21 22 23 24 25 26 
27 28 29 30 31 32 33 34 35 
36 37 38 39 40 41 42 43 44 
45 46 47 48 49 50 51 52 53 
54 55 56 57 58 59 60 61 62 
63 64 65 66 67 68 69 70 71 
72 73 74 75 76 77 78 79 80 
81 82 83 84 85 86 87 88 89 
90 91 92 93 94 95 96 97 98 
99 100 101 102 103 104 105 106 107 
108 109 110 111 112 113 114 115 116 
117 118 119 120 121 122 123 124 125 
126 127 128 129 130 131 132 133 134 
135 136 137 138 139 140 141 142 143 
144 145 146 147 148 149 150 151 152 
153 154 156 157 158 159 160 161 162 
163 165 166 167 168 169 170 172 174 
175 178 155 164 171 171 173 173 176 
176 177 177 -1 -1 -1 -1 -1 -1 
-1 -1 
OrigCellIdsB 1 191 int
-1 -1 -1 -1 -1 -1 -1 -1 -1 
-1 -1 -1 -1 -1 -1 -1 -1 -1 
-1 -1 -1 -1 -1 -1 -1 -1 -1 
-1 -1 -1 -1 -1 -1 -1 -1 -1 
-1 -1 -1 -1 -1 -1 -1 -1 -1 
-1 -1 -1 -1 -1 -1 -1 -1 -1 
-1 -1 -1 -1 -1 -1 -1 -1 -1 
-1 -1 -1 -1 -1 -1 -1 -1 -1 
-1 -1 -1 -1 -1 -1 -1 -1 -1 
-1 -1 -1 -1 -1 -1 -1 -1 -1 
-1 -1 -1 -1 -1 -1 -1 -1 -1 
-1 -1 -1 -1 -1 -1 -1 -1 -1 
-1 -1 -1 -1 -1 -1 -1 -1 -1 
-1 -1 -1 -1 -1 -1 -1 -1 -1 
-1 -1 -1 -1 -1 -1 -1 -1 -1 
-1 -1 -1 -1 -1 -1 -1 -1 -1 
-1 -1 -1 -1 -1 -1 -1 -1 -1 
-1 -1 -1 -1 -1 -1 -1 -1 -1 
-1 -1 -1 -1 -1 -1 -1 -1 -1 
-1 -1 -1 -1 -1 -1 -1 -1 -1 
-1 -1 -1 3 4 5 6 2 0 
7 1 
POINT_DATA 200
SCALARS RegionId vtkIdType
LOOKUP_TABLE default
0 0 0 0 0 0 0 0 0 
0 0 0 0 0 0 0 0 0 
0 0 0 0 0 0 0 0 0 
0 0 0 0 0 0 0 0 0 
0 0 0 0 0 0 0 0 0 
0 0 0 0 0 0 0 0 0 
0 0 0 0 0 0 0 0 0 
0 0 0 0 0 0 0 0 0 
0 0 0 0 0 0 0 0 0 
0 0 0 0 0 0 0 0 0 
0 0 0 0 0 0 0 0 0 
0 0 0 0 0 0 0 0 0 
0 0 0 0 0 0 0 0 0 
0 0 0 0 0 0 0 0 0 
0 0 0 0 0 0 0 0 0 
0 0 0 0 0 0 0 0 0 
0 0 0 0 0 0 0 0 0 
0 0 0 0 0 0 0 0 0 
0 0 0 0 0 0 0 0 0 
0 0 0 0 0 0 0 0 0 
0 0 0 0 0 0 0 0 0 
0 0 0 0 0 0 0 1 1 
1 1 
