# vtk DataFile Version 4.0
vtk output
ASCII
DATASET POLYDATA
POINTS 54 double
2.08333325 1.00000000 1.16666663 2.08333325 -0.54166669 1.16666663 2.08333325 1.00000000 0.54166663 1.23333335 -0.54166669 1.16666663 -0.54166669 -0.54166669 1.16666663 2.08333325 -0.54166669 0.54166663 1.23333335 0.15000001 1.31666660 1.23333335 -0.54166669 1.31666660 2.08333325 -0.54166669 1.31666660 2.08333325 1.00000000 1.31666660 1.23333335 0.15000001 1.16666663 2.08333325 -0.54166669 -1.16666663 2.08333325 1.00000000 -1.16666663 2.08333325 1.00000000 -0.54166663 1.23333335 -0.54166669 -1.16666663 2.08333325 -0.54166669 -0.54166663 -0.54166669 -0.54166669 -1.16666663 1.23333335 -0.54166669 -1.31666660 1.23333335 0.15000001 -1.31666660 2.08333325 -0.54166669 -1.31666660 2.08333325 1.00000000 -1.31666660 1.23333335 0.15000001 -1.16666663 2.08333325 0.08333334 0.54166663 2.08333325 0.08333334 -0.54166663 0.43333334 0.00000000 -0.54166663 0.86666667 0.43333334 -0.54166663 0.43333334 0.00000000 0.54166663 0.86666667 0.43333334 0.54166663 1.29999995 0.00000000 -0.54166663 1.29999995 0.00000000 0.54166663 1.73333335 0.43333334 -0.54166663 1.73333335 0.43333334 0.54166663 -0.54166669 -0.54166669 0.54166663 0.15000001 0.15000001 1.16666663 1.00000000 1.00000000 0.90873013 1.00000000 1.00000000 1.16666663 1.00000000 1.00000000 1.31666660 0.15000001 0.15000001 1.31666660 1.00000000 1.00000000 1.25476185 0.15000001 0.15000001 1.25821591 -0.54166669 -0.54166669 -0.54166663 0.15000001 0.15000001 -1.16666663 1.00000000 1.00000000 -1.16666663 1.00000000 1.00000000 -0.90873013 0.15000001 0.15000001 -1.31666660 1.00000000 1.00000000 -1.31666660 1.00000000 1.00000000 -1.25476185 0.15000001 0.15000001 -1.25821591 0.21666667 0.21666667 0.54166663 1.00000000 1.00000000 0.54166663 0.21666667 0.21666667 -0.54166663 1.00000000 1.00000000 -0.54166663 0.21666667 0.21666667 0.00000000 1.00000000 1.00000000 -0.02166665
POLYGONS 53 263
3 0 1 2 
4 1 3 4 5 
3 6 3 7 
3 7 1 8 
3 8 0 9 
3 10 3 6 
3 3 1 7 
3 1 0 8 
3 11 12 13 
4 14 11 15 16 
3 17 14 18 
3 19 11 17 
3 20 12 19 
3 18 14 21 
3 17 11 14 
3 19 12 11 
4 5 22 2 1 
4 11 13 23 15 
3 24 25 26 
3 27 26 25 
3 25 28 27 
3 29 27 28 
3 28 30 29 
3 31 29 30 
3 30 23 31 
3 22 31 23 
3 23 13 22 
3 2 22 13 
3 4 32 5 
4 3 10 33 4 
3 34 35 0 
6 36 37 6 7 8 9 
3 38 36 9 
4 37 39 10 6 
4 0 35 38 9 
3 39 33 10 
3 40 16 15 
4 16 41 21 14 
3 42 43 12 
6 44 45 20 19 17 18 
3 45 46 20 
4 47 44 18 21 
4 20 46 42 12 
3 41 47 21 
8 32 48 26 27 29 31 22 5 
4 2 49 34 0 
8 15 23 30 28 25 24 50 40 
4 12 43 51 13 
3 52 50 24 
4 26 48 52 24 
4 13 51 53 2 
3 53 49 2 
24 47 41 16 40 50 52 48 32 4 33 39 37 36 38 35 34 49 53 51 43 42 46 45 44 

CELL_DATA 53
FIELD FieldData 2
OrigCellIdsA 1 53 int
3 6 8 9 10 14 15 16 23 
26 28 29 30 34 35 36 41 44 
48 49 50 51 52 53 54 55 56 
57 1 2 4 7 11 13 17 19 
21 22 24 27 31 33 37 39 40 
42 43 45 46 47 58 59 -1 
OrigCellIdsB 1 53 int
-1 -1 -1 -1 -1 -1 -1 -1 -1 
-1 -1 -1 -1 -1 -1 -1 -1 -1 
-1 -1 -1 -1 -1 -1 -1 -1 -1 
-1 -1 -1 -1 -1 -1 -1 -1 -1 
-1 -1 -1 -1 -1 -1 -1 -1 -1 
-1 -1 -1 -1 -1 -1 -1 0 
POINT_DATA 54
SCALARS RegionId vtkIdType
LOOKUP_TABLE default
0 0 0 0 0 0 0 0 0 
0 0 0 0 0 0 0 0 0 
0 0 0 0 0 0 0 0 0 
0 0 0 0 0 0 0 0 0 
0 0 0 0 0 0 0 0 0 
0 0 0 0 0 0 0 0 0 

