# vtk DataFile Version 4.0
vtk output
ASCII
DATASET POLYDATA
POINTS 202 double
0.466667 -0.541667 0.541667 0.466667 -0.391667 0.541667 0.466667 -0.541667 1.16667 
0.466667 -0.391667 1.16667 0.616667 -0.391667 0.541667 0.616667 -0.391667 1.16667 
0.616667 -0.541667 0.541667 0.616667 -0.541667 1.16667 1.55 -0.541667 0.541667 
1.55 -0.541667 1.16667 1.55 -0.391667 0.541667 1.55 -0.391667 1.16667 
1.7 -0.391667 0.541667 1.7 -0.391667 1.16667 1.7 -0.541667 0.541667 
1.7 -0.541667 1.16667 2.63333 -0.541667 0.541667 2.63333 -0.541667 1.16667 
2.63333 -0.391667 0.541667 2.63333 -0.391667 1.16667 2.78333 -0.391667 0.541667 
2.78333 -0.391667 1.16667 2.78333 -0.541667 0.541667 2.78333 -0.541667 1.16667 
3.71667 -0.541667 0.541667 3.71667 -0.541667 1.16667 3.71667 -0.391667 0.541667 
3.71667 -0.391667 1.16667 3.86667 -0.391667 0.541667 3.86667 -0.391667 1.16667 
3.86667 -0.541667 0.541667 3.86667 -0.541667 1.16667 4.8 -0.541667 0.541667 
4.8 -0.541667 1.16667 4.8 -0.391667 0.541667 4.8 -0.391667 1.16667 
4.95 -0.391667 0.541667 4.95 -0.391667 1.16667 4.95 -0.541667 0.541667 
4.95 -0.541667 1.16667 5.88333 -0.541667 0.541667 5.88333 -0.541667 1.16667 
5.88333 -0.391667 0.541667 5.88333 -0.391667 1.16667 6.03333 -0.391667 0.541667 
6.03333 -0.391667 1.16667 6.03333 -0.541667 0.541667 6.03333 -0.541667 1.16667 
8.58333 -0.541667 0.541667 7.73333 -0.541667 1.16667 7.73333 0.15 1.16667 
8.58333 1 1.16667 8.58333 -0.541667 1.16667 8.58333 1 0.541667 
7.73333 0.15 1.31667 7.73333 -0.541667 1.31667 8.58333 -0.541667 1.31667 
8.58333 1 1.31667 0.466667 -0.541667 -1.16667 0.466667 -0.391667 -0.541667 
0.466667 -0.541667 -0.541667 0.466667 -0.391667 -1.16667 0.616667 -0.391667 -0.541667 
0.616667 -0.391667 -1.16667 0.616667 -0.541667 -0.541667 0.616667 -0.541667 -1.16667 
1.55 -0.541667 -0.541667 1.55 -0.541667 -1.16667 1.55 -0.391667 -0.541667 
1.55 -0.391667 -1.16667 1.7 -0.391667 -0.541667 1.7 -0.391667 -1.16667 
1.7 -0.541667 -0.541667 1.7 -0.541667 -1.16667 2.63333 -0.541667 -0.541667 
2.63333 -0.541667 -1.16667 2.63333 -0.391667 -0.541667 2.63333 -0.391667 -1.16667 
2.78333 -0.391667 -0.541667 2.78333 -0.391667 -1.16667 2.78333 -0.541667 -0.541667 
2.78333 -0.541667 -1.16667 3.71667 -0.541667 -0.541667 3.71667 -0.541667 -1.16667 
3.71667 -0.391667 -0.541667 3.71667 -0.391667 -1.16667 3.86667 -0.391667 -0.541667 
3.86667 -0.391667 -1.16667 3.86667 -0.541667 -0.541667 3.86667 -0.541667 -1.16667 
4.8 -0.541667 -0.541667 4.8 -0.541667 -1.16667 4.8 -0.391667 -0.541667 
4.8 -0.391667 -1.16667 4.95 -0.391667 -0.541667 4.95 -0.391667 -1.16667 
4.95 -0.541667 -0.541667 4.95 -0.541667 -1.16667 5.88333 -0.541667 -0.541667 
5.88333 -0.541667 -1.16667 5.88333 -0.391667 -0.541667 5.88333 -0.391667 -1.16667 
6.03333 -0.391667 -0.541667 6.03333 -0.391667 -1.16667 6.03333 -0.541667 -0.541667 
6.03333 -0.541667 -1.16667 8.58333 -0.541667 -0.541667 7.73333 0.15 -1.16667 
7.73333 -0.541667 -1.16667 8.58333 -0.541667 -1.16667 8.58333 1 -1.16667 
8.58333 1 -0.541667 7.73333 -0.541667 -1.31667 7.73333 0.15 -1.31667 
8.58333 -0.541667 -1.31667 8.58333 1 -1.31667 0.433333 0 0.541667 
0.866667 0.433333 0.541667 1.3 0 0.541667 1.73333 0.433333 0.541667 
2.16667 0 0.541667 2.6 0.433333 0.541667 3.03333 0 0.541667 
3.46667 0.433333 0.541667 3.9 0 0.541667 4.33333 0.433333 0.541667 
4.76667 0 0.541667 5.2 0.433333 0.541667 5.63333 0 0.541667 
6.06667 0.433333 0.541667 6.5 0 0.541667 7.36667 0 0.541667 
6.93333 0.433333 0.541667 7.8 0.433333 0.541667 8.23333 0 0.541667 
8.58333 0.35 0.541667 0.866667 0.433333 -0.541667 0.433333 0 -0.541667 
1.3 0 -0.541667 2.16667 0 -0.541667 1.73333 0.433333 -0.541667 
3.03333 0 -0.541667 2.6 0.433333 -0.541667 3.9 0 -0.541667 
3.46667 0.433333 -0.541667 4.76667 0 -0.541667 4.33333 0.433333 -0.541667 
5.2 0.433333 -0.541667 5.63333 0 -0.541667 6.5 0 -0.541667 
6.06667 0.433333 -0.541667 7.36667 0 -0.541667 8.23333 0 -0.541667 
7.8 0.433333 -0.541667 8.58333 0.35 -0.541667 6.93333 0.433333 -0.541667 
-0.224366 -0.541667 0.969992 -0.224366 -0.541667 0.541667 -0.224366 -0.541667 1.16667 
-0.0477664 -0.115318 1.16667 0.062132 0.15 1.16667 0.414214 1 1.31667 
0.062132 0.15 1.31667 0.414214 1 1.18238 0.062132 0.15 1.30572 
0.414214 1 1.16667 -0.224366 -0.541667 -0.541667 -0.224366 -0.541667 -0.969992 
-0.224366 -0.541667 -1.16667 -0.0477664 -0.115318 -1.16667 0.062132 0.15 -1.16667 
0.062132 0.15 -1.31667 0.414214 1 -1.31667 0.414214 1 -1.18238 
0.062132 0.15 -1.30572 0.414214 1 -1.16667 0.12692 0.306413 0.541667 
0.12692 0.306413 -0.541667 0.12692 0.306413 0.224366 0.414214 1 0.607138 
0.414214 1 0.541667 0.414214 1 -0.489387 0.414214 1 -0.541667 
0.414214 1 -0.607138 1.29167 1 0.667237 1.29167 1 0.541667 
6.29167 1 0.75 6.29167 1 0.541667 2.5 1 0.75 
1.29167 1 -0.541667 1.29167 1 -0.667237 6.29167 1 -0.75 
2.5 1 -0.75 6.29167 1 -0.541667 1.29167 1 -0.378641 
6.29167 1 0.252427 1.29167 1 -0.75 1.29167 1 0.75 
6.29167 2.5 -0.75 6.29167 2.5 0.75 1.29167 2.5 -0.75 
1.29167 2.5 0.75 
POLYGONS 245 1135
3 0 1 2 
3 2 1 3 
3 1 4 3 
3 3 4 5 
3 4 6 5 
3 5 6 7 
3 6 8 7 
3 7 8 9 
3 8 10 9 
3 9 10 11 
3 10 12 11 
3 11 12 13 
3 12 14 13 
3 13 14 15 
3 14 16 15 
3 15 16 17 
3 16 18 17 
3 17 18 19 
3 18 20 19 
3 19 20 21 
3 20 22 21 
3 21 22 23 
3 22 24 23 
3 23 24 25 
3 24 26 25 
3 25 26 27 
3 26 28 27 
3 27 28 29 
3 28 30 29 
3 29 30 31 
3 30 32 31 
3 31 32 33 
3 32 34 33 
3 33 34 35 
3 34 36 35 
3 35 36 37 
3 36 38 37 
3 37 38 39 
3 38 40 39 
3 39 40 41 
3 40 42 41 
3 41 42 43 
3 42 44 43 
3 43 44 45 
3 44 46 45 
3 45 46 47 
3 46 48 47 
4 5 7 9 11 
4 13 15 17 19 
4 21 23 25 27 
4 29 31 33 35 
4 37 39 41 43 
4 45 47 49 50 
3 51 52 53 
4 52 49 47 48 
3 54 49 55 
3 55 52 56 
3 56 51 57 
3 50 49 54 
3 49 52 55 
3 52 51 56 
3 58 59 60 
3 61 59 58 
3 61 62 59 
3 63 62 61 
3 63 64 62 
3 65 64 63 
3 65 66 64 
3 67 66 65 
3 67 68 66 
3 69 68 67 
3 69 70 68 
3 71 70 69 
3 71 72 70 
3 73 72 71 
3 73 74 72 
3 75 74 73 
3 75 76 74 
3 77 76 75 
3 77 78 76 
3 79 78 77 
3 79 80 78 
3 81 80 79 
3 81 82 80 
3 83 82 81 
3 83 84 82 
3 85 84 83 
3 85 86 84 
3 87 86 85 
3 87 88 86 
3 89 88 87 
3 89 90 88 
3 91 90 89 
3 91 92 90 
3 93 92 91 
3 93 94 92 
3 95 94 93 
3 95 96 94 
3 97 96 95 
3 97 98 96 
3 99 98 97 
3 99 100 98 
3 101 100 99 
3 101 102 100 
3 103 102 101 
3 103 104 102 
3 105 104 103 
3 105 106 104 
4 103 107 108 105 
4 101 99 97 95 
4 93 91 89 87 
4 85 83 81 79 
4 77 75 73 71 
4 69 67 65 63 
3 109 110 111 
4 108 109 106 105 
3 112 108 113 
3 114 109 112 
3 115 110 114 
3 113 108 107 
3 112 109 108 
3 114 110 109 
4 116 117 4 1 
6 117 118 10 8 6 4 
5 118 119 120 12 10 
5 120 18 16 14 12 
5 120 121 122 20 18 
6 122 123 124 28 26 20 
7 124 125 126 34 32 30 28 
4 126 127 36 34 
6 127 128 42 40 38 36 
5 128 129 130 44 42 
5 130 131 48 46 44 
3 130 132 131 
4 131 133 134 48 
3 134 135 48 
4 26 24 22 20 
4 59 62 136 137 
6 62 64 66 68 138 136 
5 68 70 139 140 138 
5 70 72 74 76 139 
5 76 78 141 142 139 
5 78 80 82 84 141 
5 84 86 143 144 141 
7 86 88 90 92 145 146 143 
4 92 94 147 145 
6 94 96 98 100 148 147 
5 100 102 149 150 148 
5 102 104 106 151 149 
4 106 152 153 151 
3 106 154 152 
3 151 155 149 
4 48 135 53 52 
4 109 111 154 106 
3 137 136 116 
3 117 116 136 
3 136 138 117 
3 118 117 138 
3 138 140 118 
3 119 118 140 
3 140 139 119 
3 120 119 139 
3 139 142 120 
3 121 120 142 
3 142 141 121 
3 122 121 141 
3 141 144 122 
3 123 122 144 
3 144 143 123 
3 124 123 143 
3 143 146 124 
3 125 124 146 
3 146 145 125 
3 126 125 145 
3 145 147 126 
3 127 126 147 
3 147 148 127 
3 128 127 148 
3 148 150 128 
3 129 128 150 
3 150 149 129 
3 130 129 149 
3 149 155 130 
3 132 130 155 
3 155 151 132 
3 131 132 151 
3 151 153 131 
3 133 131 153 
3 153 152 133 
3 134 133 152 
3 152 154 134 
3 135 134 154 
3 154 111 135 
3 53 135 111 
3 156 157 0 
4 158 156 0 2 
4 3 159 158 2 
15 160 159 3 5 11 13 19 21 27 29 35 37 43 45 50 
4 54 57 161 162 
4 54 55 56 57 
3 163 161 57 
4 162 164 50 54 
4 51 165 163 57 
3 164 160 50 
3 166 167 60 
4 167 168 58 60 
15 103 101 95 93 87 85 79 77 71 69 63 61 169 170 107 
4 168 169 61 58 
4 113 115 114 112 
4 113 171 172 115 
3 172 173 115 
4 174 171 113 107 
4 115 173 175 110 
3 170 174 107 
5 157 176 116 1 0 
5 59 137 177 166 60 
3 178 177 137 
4 116 176 178 137 
5 164 162 161 176 160 
6 176 157 156 158 159 160 
14 161 163 165 179 180 181 182 183 175 173 172 177 178 176 
5 172 171 174 170 177 
6 170 169 168 167 166 177 
4 184 185 180 179 
4 186 51 53 187 
3 186 188 51 
4 189 190 183 182 
3 191 110 192 
4 191 193 111 110 
4 194 189 182 181 
4 111 193 195 53 
4 185 194 181 180 
3 195 187 53 
4 196 175 183 190 
4 196 192 110 175 
4 197 165 51 188 
4 197 184 179 165 
3 186 198 199 
3 198 200 199 
3 199 200 201 
3 200 196 201 
6 186 187 195 193 191 198 
5 191 192 196 200 198 
8 201 196 190 189 194 185 184 197 
5 197 188 186 199 201 

CELL_DATA 245
FIELD FieldData 2
OrigCellIdsA 1 245 int
0 1 2 3 4 5 6 7 8 
9 10 11 12 13 14 15 16 17 
18 19 20 21 22 23 24 25 26 
27 28 29 30 31 32 33 34 35 
36 37 38 39 40 41 42 43 44 
45 46 47 48 49 50 51 52 53 
54 55 56 57 58 59 60 61 62 
63 64 65 66 67 68 69 70 71 
72 73 74 75 76 77 78 79 80 
81 82 83 84 85 86 87 88 89 
90 91 92 93 94 95 96 97 98 
99 100 101 102 103 104 105 106 107 
108 109 110 111 112 113 114 115 116 
117 118 119 120 121 122 123 124 125 
126 127 128 129 130 131 132 133 134 
135 136 137 138 139 140 141 142 143 
144 145 146 147 148 149 150 151 152 
153 154 155 156 157 158 159 160 161 
162 163 164 165 166 167 168 169 170 
171 172 173 174 175 176 177 178 179 
180 181 182 183 184 185 186 187 188 
189 190 191 192 193 194 195 196 197 
199 200 201 202 203 204 205 206 207 
208 210 211 212 213 214 215 216 217 
220 221 224 225 226 227 228 218 218 
218 219 219 219 222 222 223 223 209 
209 198 198 -1 -1 -1 -1 -1 -1 
-1 -1 
OrigCellIdsB 1 245 int
-1 -1 -1 -1 -1 -1 -1 -1 -1 
-1 -1 -1 -1 -1 -1 -1 -1 -1 
-1 -1 -1 -1 -1 -1 -1 -1 -1 
-1 -1 -1 -1 -1 -1 -1 -1 -1 
-1 -1 -1 -1 -1 -1 -1 -1 -1 
-1 -1 -1 -1 -1 -1 -1 -1 -1 
-1 -1 -1 -1 -1 -1 -1 -1 -1 
-1 -1 -1 -1 -1 -1 -1 -1 -1 
-1 -1 -1 -1 -1 -1 -1 -1 -1 
-1 -1 -1 -1 -1 -1 -1 -1 -1 
-1 -1 -1 -1 -1 -1 -1 -1 -1 
-1 -1 -1 -1 -1 -1 -1 -1 -1 
-1 -1 -1 -1 -1 -1 -1 -1 -1 
-1 -1 -1 -1 -1 -1 -1 -1 -1 
-1 -1 -1 -1 -1 -1 -1 -1 -1 
-1 -1 -1 -1 -1 -1 -1 -1 -1 
-1 -1 -1 -1 -1 -1 -1 -1 -1 
-1 -1 -1 -1 -1 -1 -1 -1 -1 
-1 -1 -1 -1 -1 -1 -1 -1 -1 
-1 -1 -1 -1 -1 -1 -1 -1 -1 
-1 -1 -1 -1 -1 -1 -1 -1 -1 
-1 -1 -1 -1 -1 -1 -1 -1 -1 
-1 -1 -1 -1 -1 -1 -1 -1 -1 
-1 -1 -1 -1 -1 -1 -1 -1 -1 
-1 -1 -1 -1 -1 -1 -1 -1 -1 
-1 -1 -1 -1 -1 -1 -1 -1 -1 
-1 -1 -1 3 4 5 6 2 0 
7 1 
POINT_DATA 202
SCALARS RegionId vtkIdType
LOOKUP_TABLE default
0 0 0 0 0 0 0 0 0 
0 0 0 0 0 0 0 0 0 
0 0 0 0 0 0 0 0 0 
0 0 0 0 0 0 0 0 0 
0 0 0 0 0 0 0 0 0 
0 0 0 0 0 0 0 0 0 
0 0 0 0 0 0 0 0 0 
0 0 0 0 0 0 0 0 0 
0 0 0 0 0 0 0 0 0 
0 0 0 0 0 0 0 0 0 
0 0 0 0 0 0 0 0 0 
0 0 0 0 0 0 0 0 0 
0 0 0 0 0 0 0 0 0 
0 0 0 0 0 0 0 0 0 
0 0 0 0 0 0 0 0 0 
0 0 0 0 0 0 0 0 0 
0 0 0 0 0 0 0 0 0 
0 0 0 0 0 0 0 0 0 
0 0 0 0 0 0 0 0 0 
0 0 0 0 0 0 0 0 0 
0 0 0 0 0 0 0 0 0 
0 0 0 0 0 0 0 0 0 
1 1 1 1 
