# vtk DataFile Version 4.0
vtk output
ASCII
DATASET POLYDATA
POINTS 202 double
0.466667 -0.541667 1.16667 0.466667 -0.391667 0.541667 0.466667 -0.541667 0.541667 
0.466667 -0.391667 1.16667 0.616667 -0.391667 0.541667 0.616667 -0.391667 1.16667 
0.616667 -0.541667 0.541667 0.616667 -0.541667 1.16667 1.55 -0.541667 0.541667 
1.55 -0.541667 1.16667 1.55 -0.391667 0.541667 1.55 -0.391667 1.16667 
1.7 -0.391667 0.541667 1.7 -0.391667 1.16667 1.7 -0.541667 0.541667 
1.7 -0.541667 1.16667 2.63333 -0.541667 0.541667 2.63333 -0.541667 1.16667 
2.63333 -0.391667 0.541667 2.63333 -0.391667 1.16667 2.78333 -0.391667 0.541667 
2.78333 -0.391667 1.16667 2.78333 -0.541667 0.541667 2.78333 -0.541667 1.16667 
3.71667 -0.541667 0.541667 3.71667 -0.541667 1.16667 3.71667 -0.391667 0.541667 
3.71667 -0.391667 1.16667 3.86667 -0.391667 0.541667 3.86667 -0.391667 1.16667 
3.86667 -0.541667 0.541667 3.86667 -0.541667 1.16667 4.8 -0.541667 0.541667 
4.8 -0.541667 1.16667 4.8 -0.391667 0.541667 4.8 -0.391667 1.16667 
4.95 -0.391667 0.541667 4.95 -0.391667 1.16667 4.95 -0.541667 0.541667 
4.95 -0.541667 1.16667 5.88333 -0.541667 0.541667 5.88333 -0.541667 1.16667 
5.88333 -0.391667 0.541667 5.88333 -0.391667 1.16667 6.03333 -0.391667 0.541667 
6.03333 -0.391667 1.16667 6.03333 -0.541667 0.541667 6.03333 -0.541667 1.16667 
8.58333 -0.541667 0.541667 7.73333 0.15 1.16667 7.73333 -0.541667 1.16667 
8.58333 1 0.541667 8.58333 -0.541667 1.16667 8.58333 1 1.16667 
7.73333 -0.541667 1.31667 7.73333 0.15 1.31667 8.58333 -0.541667 1.31667 
8.58333 1 1.31667 0.466667 -0.541667 -0.541667 0.466667 -0.391667 -0.541667 
0.466667 -0.541667 -1.16667 0.466667 -0.391667 -1.16667 0.616667 -0.391667 -0.541667 
0.616667 -0.391667 -1.16667 0.616667 -0.541667 -0.541667 0.616667 -0.541667 -1.16667 
1.55 -0.541667 -0.541667 1.55 -0.541667 -1.16667 1.55 -0.391667 -0.541667 
1.55 -0.391667 -1.16667 1.7 -0.391667 -0.541667 1.7 -0.391667 -1.16667 
1.7 -0.541667 -0.541667 1.7 -0.541667 -1.16667 2.63333 -0.541667 -0.541667 
2.63333 -0.541667 -1.16667 2.63333 -0.391667 -0.541667 2.63333 -0.391667 -1.16667 
2.78333 -0.391667 -0.541667 2.78333 -0.391667 -1.16667 2.78333 -0.541667 -0.541667 
2.78333 -0.541667 -1.16667 3.71667 -0.541667 -0.541667 3.71667 -0.541667 -1.16667 
3.71667 -0.391667 -0.541667 3.71667 -0.391667 -1.16667 3.86667 -0.391667 -0.541667 
3.86667 -0.391667 -1.16667 3.86667 -0.541667 -0.541667 3.86667 -0.541667 -1.16667 
4.8 -0.541667 -0.541667 4.8 -0.541667 -1.16667 4.8 -0.391667 -0.541667 
4.8 -0.391667 -1.16667 4.95 -0.391667 -0.541667 4.95 -0.391667 -1.16667 
4.95 -0.541667 -0.541667 4.95 -0.541667 -1.16667 5.88333 -0.541667 -0.541667 
5.88333 -0.541667 -1.16667 5.88333 -0.391667 -0.541667 5.88333 -0.391667 -1.16667 
6.03333 -0.391667 -0.541667 6.03333 -0.391667 -1.16667 6.03333 -0.541667 -0.541667 
6.03333 -0.541667 -1.16667 8.58333 -0.541667 -0.541667 7.73333 -0.541667 -1.16667 
7.73333 0.15 -1.16667 8.58333 1 -0.541667 8.58333 1 -1.16667 
8.58333 -0.541667 -1.16667 7.73333 0.15 -1.31667 7.73333 -0.541667 -1.31667 
8.58333 -0.541667 -1.31667 8.58333 1 -1.31667 0.866667 0.433333 0.541667 
0.433333 0 0.541667 1.3 0 0.541667 2.16667 0 0.541667 
1.73333 0.433333 0.541667 3.03333 0 0.541667 2.6 0.433333 0.541667 
3.9 0 0.541667 3.46667 0.433333 0.541667 4.76667 0 0.541667 
4.33333 0.433333 0.541667 5.2 0.433333 0.541667 5.63333 0 0.541667 
6.5 0 0.541667 6.06667 0.433333 0.541667 7.36667 0 0.541667 
6.93333 0.433333 0.541667 8.23333 0 0.541667 7.8 0.433333 0.541667 
8.58333 0.35 0.541667 0.433333 0 -0.541667 0.866667 0.433333 -0.541667 
1.3 0 -0.541667 1.73333 0.433333 -0.541667 2.16667 0 -0.541667 
2.6 0.433333 -0.541667 3.03333 0 -0.541667 3.46667 0.433333 -0.541667 
3.9 0 -0.541667 4.33333 0.433333 -0.541667 4.76667 0 -0.541667 
5.2 0.433333 -0.541667 5.63333 0 -0.541667 6.06667 0.433333 -0.541667 
6.5 0 -0.541667 7.36667 0 -0.541667 7.8 0.433333 -0.541667 
8.23333 0 -0.541667 8.58333 0.35 -0.541667 6.93333 0.433333 -0.541667 
-0.224366 -0.541667 0.541667 -0.224366 -0.541667 0.969992 -0.224366 -0.541667 1.16667 
-0.0477664 -0.115318 1.16667 0.062132 0.15 1.16667 0.062132 0.15 1.31667 
0.414214 1 1.31667 0.414214 1 1.18238 0.062132 0.15 1.30572 
0.414214 1 1.16667 -0.224366 -0.541667 -0.969992 -0.224366 -0.541667 -0.541667 
-0.224366 -0.541667 -1.16667 0.062132 0.15 -1.16667 -0.0477664 -0.115318 -1.16667 
0.414214 1 -1.31667 0.062132 0.15 -1.31667 0.414214 1 -1.18238 
0.062132 0.15 -1.30572 0.414214 1 -1.16667 0.12692 0.306413 0.541667 
0.12692 0.306413 -0.541667 0.12692 0.306413 0.224366 0.414214 1 -0.607138 
0.414214 1 -0.541667 0.414214 1 -0.489387 0.414214 1 0.541667 
0.414214 1 0.607138 1.29167 1 0.541667 1.29167 1 0.667237 
6.29167 1 0.541667 6.29167 1 0.75 2.5 1 0.75 
1.29167 1 -0.667237 1.29167 1 -0.541667 2.5 1 -0.75 
6.29167 1 -0.75 6.29167 1 -0.541667 1.29167 1 -0.378641 
6.29167 1 0.252427 1.29167 1 -0.75 1.29167 1 0.75 
6.29167 2.5 0.75 6.29167 2.5 -0.75 1.29167 2.5 -0.75 
1.29167 2.5 0.75 
POLYGONS 245 1135
3 0 1 2 
3 3 1 0 
3 3 4 1 
3 5 4 3 
3 5 6 4 
3 7 6 5 
3 7 8 6 
3 9 8 7 
3 9 10 8 
3 11 10 9 
3 11 12 10 
3 13 12 11 
3 13 14 12 
3 15 14 13 
3 15 16 14 
3 17 16 15 
3 17 18 16 
3 19 18 17 
3 19 20 18 
3 21 20 19 
3 21 22 20 
3 23 22 21 
3 23 24 22 
3 25 24 23 
3 25 26 24 
3 27 26 25 
3 27 28 26 
3 29 28 27 
3 29 30 28 
3 31 30 29 
3 31 32 30 
3 33 32 31 
3 33 34 32 
3 35 34 33 
3 35 36 34 
3 37 36 35 
3 37 38 36 
3 39 38 37 
3 39 40 38 
3 41 40 39 
3 41 42 40 
3 43 42 41 
3 43 44 42 
3 45 44 43 
3 45 46 44 
3 47 46 45 
3 47 48 46 
4 11 9 7 5 
4 19 17 15 13 
4 27 25 23 21 
4 35 33 31 29 
4 43 41 39 37 
4 49 50 47 45 
3 51 52 53 
4 48 47 50 52 
3 54 50 55 
3 56 52 54 
3 57 53 56 
3 55 50 49 
3 54 52 50 
3 56 53 52 
3 58 59 60 
3 60 59 61 
3 59 62 61 
3 61 62 63 
3 62 64 63 
3 63 64 65 
3 64 66 65 
3 65 66 67 
3 66 68 67 
3 67 68 69 
3 68 70 69 
3 69 70 71 
3 70 72 71 
3 71 72 73 
3 72 74 73 
3 73 74 75 
3 74 76 75 
3 75 76 77 
3 76 78 77 
3 77 78 79 
3 78 80 79 
3 79 80 81 
3 80 82 81 
3 81 82 83 
3 82 84 83 
3 83 84 85 
3 84 86 85 
3 85 86 87 
3 86 88 87 
3 87 88 89 
3 88 90 89 
3 89 90 91 
3 90 92 91 
3 91 92 93 
3 92 94 93 
3 93 94 95 
3 94 96 95 
3 95 96 97 
3 96 98 97 
3 97 98 99 
3 98 100 99 
3 99 100 101 
3 100 102 101 
3 101 102 103 
3 102 104 103 
3 103 104 105 
3 104 106 105 
4 105 107 108 103 
4 95 97 99 101 
4 87 89 91 93 
4 79 81 83 85 
4 71 73 75 77 
4 63 65 67 69 
3 109 110 111 
4 105 106 111 107 
3 112 107 113 
3 113 111 114 
3 114 110 115 
3 108 107 112 
3 107 111 113 
3 111 110 114 
4 1 4 116 117 
6 4 6 8 10 118 116 
5 10 12 119 120 118 
5 12 14 16 18 119 
5 18 20 121 122 119 
6 20 26 28 123 124 121 
7 28 30 32 34 125 126 123 
4 34 36 127 125 
6 36 38 40 42 128 127 
5 42 44 129 130 128 
5 44 46 48 131 129 
3 131 132 129 
4 48 133 134 131 
3 48 135 133 
4 20 22 24 26 
4 136 137 62 59 
6 137 138 68 66 64 62 
5 138 139 140 70 68 
5 140 76 74 72 70 
5 140 141 142 78 76 
5 142 84 82 80 78 
5 142 143 144 86 84 
7 144 145 146 92 90 88 86 
4 146 147 94 92 
6 147 148 100 98 96 94 
5 148 149 150 102 100 
5 150 151 106 104 102 
4 151 152 153 106 
3 153 154 106 
3 150 155 151 
4 52 51 135 48 
4 106 154 109 111 
3 117 137 136 
3 137 117 116 
3 116 138 137 
3 138 116 118 
3 118 139 138 
3 139 118 120 
3 120 140 139 
3 140 120 119 
3 119 141 140 
3 141 119 122 
3 122 142 141 
3 142 122 121 
3 121 143 142 
3 143 121 124 
3 124 144 143 
3 144 124 123 
3 123 145 144 
3 145 123 126 
3 126 146 145 
3 146 126 125 
3 125 147 146 
3 147 125 127 
3 127 148 147 
3 148 127 128 
3 128 149 148 
3 149 128 130 
3 130 150 149 
3 150 130 129 
3 129 155 150 
3 155 129 132 
3 132 151 155 
3 151 132 131 
3 131 152 151 
3 152 131 134 
3 134 153 152 
3 153 134 133 
3 133 154 153 
3 154 133 135 
3 135 109 154 
3 109 135 51 
3 2 156 157 
4 0 2 157 158 
4 0 158 159 3 
15 49 45 43 37 35 29 27 21 19 13 11 5 3 159 160 
4 161 162 57 55 
4 57 56 54 55 
3 57 162 163 
4 55 49 164 161 
4 57 163 165 53 
3 49 160 164 
3 58 166 167 
4 58 60 168 166 
15 108 169 170 61 63 69 71 77 79 85 87 93 95 101 103 
4 60 61 170 168 
4 113 114 115 112 
4 115 171 172 112 
3 115 173 171 
4 108 112 172 174 
4 110 175 173 115 
3 108 174 169 
5 2 1 117 176 156 
5 58 167 177 136 59 
3 136 177 178 
4 136 178 176 117 
5 160 176 162 161 164 
6 160 159 158 157 156 176 
14 176 178 177 171 173 175 179 180 181 182 183 165 163 162 
5 177 169 174 172 171 
6 177 167 166 168 170 169 
4 183 182 184 185 
4 186 51 53 187 
3 53 188 187 
4 180 179 189 190 
3 191 110 192 
4 110 109 193 192 
4 181 180 190 194 
4 51 195 193 109 
4 182 181 194 184 
3 51 186 195 
4 189 179 175 196 
4 175 110 191 196 
4 188 53 165 197 
4 165 183 185 197 
3 198 199 187 
3 198 200 199 
3 201 200 198 
3 201 196 200 
6 199 192 193 195 186 187 
5 199 200 196 191 192 
8 197 185 184 194 190 189 196 201 
5 201 198 187 188 197 

CELL_DATA 245
FIELD FieldData 2
OrigCellIdsA 1 245 int
0 1 2 3 4 5 6 7 8 
9 10 11 12 13 14 15 16 17 
18 19 20 21 22 23 24 25 26 
27 28 29 30 31 32 33 34 35 
36 37 38 39 40 41 42 43 44 
45 46 47 48 49 50 51 52 53 
54 55 56 57 58 59 60 61 62 
63 64 65 66 67 68 69 70 71 
72 73 74 75 76 77 78 79 80 
81 82 83 84 85 86 87 88 89 
90 91 92 93 94 95 96 97 98 
99 100 101 102 103 104 105 106 107 
108 109 110 111 112 113 114 115 116 
117 118 119 120 121 122 123 124 125 
126 127 128 129 130 131 132 133 134 
135 136 137 138 139 140 141 142 143 
144 145 146 147 148 149 150 151 152 
153 154 155 156 157 158 159 160 161 
162 163 164 165 166 167 168 169 170 
171 172 173 174 175 176 177 178 179 
180 181 182 183 184 185 186 187 188 
189 190 191 192 193 194 195 196 197 
199 200 201 202 203 204 205 206 207 
208 210 211 212 213 214 215 216 217 
220 221 224 225 226 227 228 218 218 
218 219 219 219 222 222 223 223 209 
209 198 198 -1 -1 -1 -1 -1 -1 
-1 -1 
OrigCellIdsB 1 245 int
-1 -1 -1 -1 -1 -1 -1 -1 -1 
-1 -1 -1 -1 -1 -1 -1 -1 -1 
-1 -1 -1 -1 -1 -1 -1 -1 -1 
-1 -1 -1 -1 -1 -1 -1 -1 -1 
-1 -1 -1 -1 -1 -1 -1 -1 -1 
-1 -1 -1 -1 -1 -1 -1 -1 -1 
-1 -1 -1 -1 -1 -1 -1 -1 -1 
-1 -1 -1 -1 -1 -1 -1 -1 -1 
-1 -1 -1 -1 -1 -1 -1 -1 -1 
-1 -1 -1 -1 -1 -1 -1 -1 -1 
-1 -1 -1 -1 -1 -1 -1 -1 -1 
-1 -1 -1 -1 -1 -1 -1 -1 -1 
-1 -1 -1 -1 -1 -1 -1 -1 -1 
-1 -1 -1 -1 -1 -1 -1 -1 -1 
-1 -1 -1 -1 -1 -1 -1 -1 -1 
-1 -1 -1 -1 -1 -1 -1 -1 -1 
-1 -1 -1 -1 -1 -1 -1 -1 -1 
-1 -1 -1 -1 -1 -1 -1 -1 -1 
-1 -1 -1 -1 -1 -1 -1 -1 -1 
-1 -1 -1 -1 -1 -1 -1 -1 -1 
-1 -1 -1 -1 -1 -1 -1 -1 -1 
-1 -1 -1 -1 -1 -1 -1 -1 -1 
-1 -1 -1 -1 -1 -1 -1 -1 -1 
-1 -1 -1 -1 -1 -1 -1 -1 -1 
-1 -1 -1 -1 -1 -1 -1 -1 -1 
-1 -1 -1 -1 -1 -1 -1 -1 -1 
-1 -1 -1 3 4 5 6 2 0 
7 1 
POINT_DATA 202
SCALARS RegionId vtkIdType
LOOKUP_TABLE default
0 0 0 0 0 0 0 0 0 
0 0 0 0 0 0 0 0 0 
0 0 0 0 0 0 0 0 0 
0 0 0 0 0 0 0 0 0 
0 0 0 0 0 0 0 0 0 
0 0 0 0 0 0 0 0 0 
0 0 0 0 0 0 0 0 0 
0 0 0 0 0 0 0 0 0 
0 0 0 0 0 0 0 0 0 
0 0 0 0 0 0 0 0 0 
0 0 0 0 0 0 0 0 0 
0 0 0 0 0 0 0 0 0 
0 0 0 0 0 0 0 0 0 
0 0 0 0 0 0 0 0 0 
0 0 0 0 0 0 0 0 0 
0 0 0 0 0 0 0 0 0 
0 0 0 0 0 0 0 0 0 
0 0 0 0 0 0 0 0 0 
0 0 0 0 0 0 0 0 0 
0 0 0 0 0 0 0 0 0 
0 0 0 0 0 0 0 0 0 
0 0 0 0 0 0 0 0 0 
1 1 1 1 
