# vtk DataFile Version 4.0
vtk output
ASCII
DATASET POLYDATA
POINTS 278 double
-0.99239999 -0.54166669 1.16666663 -0.99239999 -0.39166668 0.54166663 -0.99239999 -0.54166669 0.54166663 -0.99239999 -0.39166668 1.16666663 -1.14240003 -0.39166668 0.54166663 -1.14240003 -0.39166668 1.16666663 -1.14240003 -0.54166669 0.54166663 -1.14240003 -0.54166669 1.16666663 -3.15906668 -0.54166669 0.54166663 -3.15906668 -0.54166669 1.16666663 -3.15906668 -0.39166668 0.54166663 -3.15906668 -0.39166668 1.16666663 -3.30906677 -0.39166668 0.54166663 -3.30906677 -0.39166668 1.16666663 -3.30906677 -0.54166669 0.54166663 -3.30906677 -0.54166669 1.16666663 -5.32573318 -0.54166669 0.54166663 -5.32573318 -0.54166669 1.16666663 -5.32573318 -0.39166668 0.54166663 -5.32573318 -0.39166668 1.16666663 -5.47573328 -0.39166668 0.54166663 -5.47573328 -0.39166668 1.16666663 -5.47573328 -0.54166669 0.54166663 -5.47573328 -0.54166669 1.16666663 -7.49240017 -0.54166669 0.54166663 -7.49240017 -0.54166669 1.16666663 -7.49240017 -0.39166668 0.54166663 -7.49240017 -0.39166668 1.16666663 -7.64239979 -0.39166668 0.54166663 -7.64239979 -0.39166668 1.16666663 -7.64239979 -0.54166669 0.54166663 -7.64239979 -0.54166669 1.16666663 -9.65906620 -0.54166669 0.54166663 -9.65906620 -0.54166669 1.16666663 -9.65906620 -0.39166668 0.54166663 -9.65906620 -0.39166668 1.16666663 -9.80906677 -0.39166668 0.54166663 -9.80906677 -0.39166668 1.16666663 -9.80906677 -0.54166669 0.54166663 -9.80906677 -0.54166669 1.16666663 -11.82573318 -0.54166669 0.54166663 -11.82573318 -0.54166669 1.16666663 -11.82573318 -0.39166668 0.54166663 -11.82573318 -0.39166668 1.16666663 -11.97573376 -0.39166668 0.54166663 -11.97573376 -0.39166668 1.16666663 -11.97573376 -0.54166669 0.54166663 -11.97573376 -0.54166669 1.16666663 -13.99240017 -0.54166669 0.54166663 -13.99240017 -0.54166669 1.16666663 -13.99240017 -0.39166668 0.54166663 -13.99240017 -0.39166668 1.16666663 -14.14239979 -0.39166668 0.54166663 -14.14239979 -0.39166668 1.16666663 -14.14239979 -0.54166669 0.54166663 -14.14239979 -0.54166669 1.16666663 -16.15906715 -0.54166669 0.54166663 -16.15906715 -0.54166669 1.16666663 -16.15906715 -0.39166668 0.54166663 -16.15906715 -0.39166668 1.16666663 -16.30906677 -0.39166668 0.54166663 -16.30906677 -0.39166668 1.16666663 -16.30906677 -0.54166669 0.54166663 -16.30906677 -0.54166669 1.16666663 -17.24239922 -0.54166669 0.54166663 -17.24239922 -0.54166669 1.16666663 -17.24239922 -0.39166668 0.54166663 -17.24239922 -0.39166668 1.16666663 -17.39240074 -0.39166668 0.54166663 -17.39240074 -0.39166668 1.16666663 -17.39240074 -0.54166669 0.54166663 -17.39240074 -0.54166669 1.16666663 -0.99239999 -0.54166669 -0.54166663 -0.99239999 -0.39166668 -0.54166663 -0.99239999 -0.54166669 -1.16666663 -0.99239999 -0.39166668 -1.16666663 -1.14240003 -0.39166668 -0.54166663 -1.14240003 -0.39166668 -1.16666663 -1.14240003 -0.54166669 -0.54166663 -1.14240003 -0.54166669 -1.16666663 -2.07573342 -0.54166669 -0.54166663 -2.07573342 -0.54166669 -1.16666663 -2.07573342 -0.39166668 -0.54166663 -2.07573342 -0.39166668 -1.16666663 -2.22573328 -0.39166668 -0.54166663 -2.22573328 -0.39166668 -1.16666663 -2.22573328 -0.54166669 -0.54166663 -2.22573328 -0.54166669 -1.16666663 -4.24240017 -0.54166669 -0.54166663 -4.24240017 -0.54166669 -1.16666663 -4.24240017 -0.39166668 -0.54166663 -4.24240017 -0.39166668 -1.16666663 -4.39239979 -0.39166668 -0.54166663 -4.39239979 -0.39166668 -1.16666663 -4.39239979 -0.54166669 -0.54166663 -4.39239979 -0.54166669 -1.16666663 -6.40906668 -0.54166669 -0.54166663 -6.40906668 -0.54166669 -1.16666663 -6.40906668 -0.39166668 -0.54166663 -6.40906668 -0.39166668 -1.16666663 -6.55906677 -0.39166668 -0.54166663 -6.55906677 -0.39166668 -1.16666663 -6.55906677 -0.54166669 -0.54166663 -6.55906677 -0.54166669 -1.16666663 -8.57573318 -0.54166669 -0.54166663 -8.57573318 -0.54166669 -1.16666663 -8.57573318 -0.39166668 -0.54166663 -8.57573318 -0.39166668 -1.16666663 -8.72573376 -0.39166668 -0.54166663 -8.72573376 -0.39166668 -1.16666663 -8.72573376 -0.54166669 -0.54166663 -8.72573376 -0.54166669 -1.16666663 -10.74240017 -0.54166669 -0.54166663 -10.74240017 -0.54166669 -1.16666663 -10.74240017 -0.39166668 -0.54166663 -10.74240017 -0.39166668 -1.16666663 -10.89239979 -0.39166668 -0.54166663 -10.89239979 -0.39166668 -1.16666663 -10.89239979 -0.54166669 -0.54166663 -10.89239979 -0.54166669 -1.16666663 -12.90906620 -0.54166669 -0.54166663 -12.90906620 -0.54166669 -1.16666663 -12.90906620 -0.39166668 -0.54166663 -12.90906620 -0.39166668 -1.16666663 -13.05906677 -0.39166668 -0.54166663 -13.05906677 -0.39166668 -1.16666663 -13.05906677 -0.54166669 -0.54166663 -13.05906677 -0.54166669 -1.16666663 -15.07573318 -0.54166669 -0.54166663 -15.07573318 -0.54166669 -1.16666663 -15.07573318 -0.39166668 -0.54166663 -15.07573318 -0.39166668 -1.16666663 -15.22573376 -0.39166668 -0.54166663 -15.22573376 -0.39166668 -1.16666663 -15.22573376 -0.54166669 -0.54166663 -15.22573376 -0.54166669 -1.16666663 -17.24239922 -0.54166669 -0.54166663 -17.24239922 -0.54166669 -1.16666663 -17.24239922 -0.39166668 -0.54166663 -17.24239922 -0.39166668 -1.16666663 -17.39240074 -0.39166668 -0.54166663 -17.39240074 -0.39166668 -1.16666663 -17.39240074 -0.54166669 -0.54166663 -17.39240074 -0.54166669 -1.16666663 -0.52573335 0.00000000 0.54166663 -0.95906669 0.43333334 -0.54166663 -0.52573335 0.00000000 -0.54166663 -0.95906669 0.43333334 0.54166663 -1.39240003 0.00000000 -0.54166663 -1.39240003 0.00000000 0.54166663 -1.82573330 0.43333334 -0.54166663 -1.82573330 0.43333334 0.54166663 -2.25906658 0.00000000 -0.54166663 -2.25906658 0.00000000 0.54166663 -2.69239998 0.43333334 -0.54166663 -2.69239998 0.43333334 0.54166663 -3.12573338 0.00000000 -0.54166663 -3.12573338 0.00000000 0.54166663 -3.55906677 0.43333334 -0.54166663 -3.55906677 0.43333334 0.54166663 -3.99239993 0.00000000 -0.54166663 -3.99239993 0.00000000 0.54166663 -4.42573357 0.43333334 -0.54166663 -4.42573357 0.43333334 0.54166663 -4.85906649 0.00000000 -0.54166663 -4.85906649 0.00000000 0.54166663 -5.29239988 0.43333334 -0.54166663 -5.29239988 0.43333334 0.54166663 -5.72573328 0.00000000 -0.54166663 -5.72573328 0.00000000 0.54166663 -6.15906668 0.43333334 -0.54166663 -6.15906668 0.43333334 0.54166663 -6.59240007 0.00000000 -0.54166663 -6.59240007 0.00000000 0.54166663 -7.02573347 0.43333334 -0.54166663 -7.02573347 0.43333334 0.54166663 -7.45906687 0.00000000 -0.54166663 -7.45906687 0.00000000 0.54166663 -7.89239979 0.43333334 -0.54166663 -7.89239979 0.43333334 0.54166663 -8.32573318 0.00000000 -0.54166663 -8.32573318 0.00000000 0.54166663 -8.75906658 0.43333334 -0.54166663 -8.75906658 0.43333334 0.54166663 -9.19239998 0.00000000 -0.54166663 -9.19239998 0.00000000 0.54166663 -9.62573338 0.43333334 -0.54166663 -9.62573338 0.43333334 0.54166663 -10.05906677 0.00000000 -0.54166663 -10.05906677 0.00000000 0.54166663 -10.49240017 0.43333334 -0.54166663 -10.49240017 0.43333334 0.54166663 -10.92573357 0.00000000 -0.54166663 -10.92573357 0.00000000 0.54166663 -11.35906696 0.43333334 -0.54166663 -11.35906696 0.43333334 0.54166663 -11.79240036 0.00000000 -0.54166663 -11.79240036 0.00000000 0.54166663 -12.22573376 0.43333334 -0.54166663 -12.22573376 0.43333334 0.54166663 -12.65906620 0.00000000 -0.54166663 -12.65906620 0.00000000 0.54166663 -13.09239960 0.43333334 -0.54166663 -13.09239960 0.43333334 0.54166663 -13.52573299 0.00000000 -0.54166663 -13.52573299 0.00000000 0.54166663 -13.95906639 0.43333334 -0.54166663 -13.95906639 0.43333334 0.54166663 -14.39239979 0.00000000 -0.54166663 -14.39239979 0.00000000 0.54166663 -14.82573318 0.43333334 -0.54166663 -14.82573318 0.43333334 0.54166663 -15.25906658 0.00000000 -0.54166663 -15.25906658 0.00000000 0.54166663 -15.69239998 0.43333334 -0.54166663 -15.69239998 0.43333334 0.54166663 -16.12573242 0.00000000 -0.54166663 -16.12573242 0.00000000 0.54166663 -16.55906677 0.43333334 -0.54166663 -16.55906677 0.43333334 0.54166663 -16.99239922 0.00000000 -0.54166663 -16.99239922 0.00000000 0.54166663 -17.42573357 0.43333334 -0.54166663 -17.42573357 0.43333334 0.54166663 -17.85906601 0.00000000 -0.54166663 -17.85906601 0.00000000 0.54166663 0.22436570 -0.54166669 0.54166663 0.22436570 -0.54166669 1.03739381 0.22436570 -0.54166669 1.16666663 0.22436570 -0.54166669 -1.03739381 0.22436570 -0.54166669 -0.54166663 0.22436570 -0.54166669 -1.16666663 -0.15398373 0.37174961 -0.54166663 -0.15398373 0.37174961 0.38770731 -0.15398373 0.37174961 0.54166663 -0.06213204 0.15000001 -1.16666663 -0.06213204 0.15000001 -1.31201440 -0.06213204 0.15000001 -1.31666660 -0.41421358 1.00000000 -1.31666660 -0.41421358 1.00000000 -1.17403159 -0.41421358 1.00000000 -1.16666663 -0.41421358 1.00000000 -0.57235396 -0.41421358 1.00000000 -0.54166663 -0.41421358 1.00000000 -0.51725889 -0.41421358 1.00000000 0.54166663 -0.41421358 1.00000000 0.57235396 -0.41421358 1.00000000 1.16666663 -0.41421358 1.00000000 1.17403159 -0.41421358 1.00000000 1.31666660 -0.06213204 0.15000001 1.31666660 -0.06213204 0.15000001 1.31201440 -0.06213204 0.15000001 1.16666663 -18.60916572 -0.54166669 0.67093927 -18.60916572 -0.54166669 0.54166663 -18.60916572 -0.54166669 1.16666663 -18.60916572 -0.54166669 -0.54166663 -18.60916572 -0.54166669 -0.67093927 -18.60916572 -0.54166669 -1.16666663 -18.23081627 0.37174939 -0.38770676 -18.23081627 0.37174939 -0.54166663 -18.23081627 0.37174939 0.54166663 -18.32266790 0.15000001 1.16666663 -17.97058625 1.00000000 1.13597931 -17.97058625 1.00000000 1.16666663 -17.97058625 1.00000000 1.31666660 -18.32266790 0.15000001 1.31666660 -17.97058625 1.00000000 1.30930165 -18.32266790 0.15000001 1.17131883 -18.32266790 0.15000001 -1.16666663 -17.97058625 1.00000000 -1.16666663 -17.97058625 1.00000000 -1.13597931 -18.32266790 0.15000001 -1.31666660 -17.97058625 1.00000000 -1.31666660 -17.97058625 1.00000000 -1.30930165 -18.32266790 0.15000001 -1.17131883 -17.97058625 1.00000000 0.54166663 -17.97058625 1.00000000 -0.54166663 -17.97058625 1.00000000 0.51725888
POLYGONS 254 1314
3 0 1 2 
3 3 1 0 
3 3 4 1 
3 5 4 3 
3 5 6 4 
3 7 6 5 
3 7 8 6 
3 9 8 7 
3 9 10 8 
3 11 10 9 
3 11 12 10 
3 13 12 11 
3 13 14 12 
3 15 14 13 
3 15 16 14 
3 17 16 15 
3 17 18 16 
3 19 18 17 
3 19 20 18 
3 21 20 19 
3 21 22 20 
3 23 22 21 
3 23 24 22 
3 25 24 23 
3 25 26 24 
3 27 26 25 
3 27 28 26 
3 29 28 27 
3 29 30 28 
3 31 30 29 
3 31 32 30 
3 33 32 31 
3 33 34 32 
3 35 34 33 
3 35 36 34 
3 37 36 35 
3 37 38 36 
3 39 38 37 
3 39 40 38 
3 41 40 39 
3 41 42 40 
3 43 42 41 
3 43 44 42 
3 45 44 43 
3 45 46 44 
3 47 46 45 
3 47 48 46 
3 49 48 47 
3 49 50 48 
3 51 50 49 
3 51 52 50 
3 53 52 51 
3 53 54 52 
3 55 54 53 
3 55 56 54 
3 57 56 55 
3 57 58 56 
3 59 58 57 
3 59 60 58 
3 61 60 59 
3 61 62 60 
3 63 62 61 
3 63 64 62 
3 65 64 63 
3 65 66 64 
3 67 66 65 
3 67 68 66 
3 69 68 67 
3 69 70 68 
3 71 70 69 
3 72 73 74 
3 74 73 75 
3 73 76 75 
3 75 76 77 
3 76 78 77 
3 77 78 79 
3 78 80 79 
3 79 80 81 
3 80 82 81 
3 81 82 83 
3 82 84 83 
3 83 84 85 
3 84 86 85 
3 85 86 87 
3 86 88 87 
3 87 88 89 
3 88 90 89 
3 89 90 91 
3 90 92 91 
3 91 92 93 
3 92 94 93 
3 93 94 95 
3 94 96 95 
3 95 96 97 
3 96 98 97 
3 97 98 99 
3 98 100 99 
3 99 100 101 
3 100 102 101 
3 101 102 103 
3 102 104 103 
3 103 104 105 
3 104 106 105 
3 105 106 107 
3 106 108 107 
3 107 108 109 
3 108 110 109 
3 109 110 111 
3 110 112 111 
3 111 112 113 
3 112 114 113 
3 113 114 115 
3 114 116 115 
3 115 116 117 
3 116 118 117 
3 117 118 119 
3 118 120 119 
3 119 120 121 
3 120 122 121 
3 121 122 123 
3 122 124 123 
3 123 124 125 
3 124 126 125 
3 125 126 127 
3 126 128 127 
3 127 128 129 
3 128 130 129 
3 129 130 131 
3 130 132 131 
3 131 132 133 
3 132 134 133 
3 133 134 135 
3 134 136 135 
3 135 136 137 
3 136 138 137 
3 137 138 139 
3 138 140 139 
3 139 140 141 
3 140 142 141 
3 141 142 143 
3 144 145 146 
3 145 144 147 
3 147 148 145 
3 148 147 149 
3 149 150 148 
3 150 149 151 
3 151 152 150 
3 152 151 153 
3 153 154 152 
3 154 153 155 
3 155 156 154 
3 156 155 157 
3 157 158 156 
3 158 157 159 
3 159 160 158 
3 160 159 161 
3 161 162 160 
3 162 161 163 
3 163 164 162 
3 164 163 165 
3 165 166 164 
3 166 165 167 
3 167 168 166 
3 168 167 169 
3 169 170 168 
3 170 169 171 
3 171 172 170 
3 172 171 173 
3 173 174 172 
3 174 173 175 
3 175 176 174 
3 176 175 177 
3 177 178 176 
3 178 177 179 
3 179 180 178 
3 180 179 181 
3 181 182 180 
3 182 181 183 
3 183 184 182 
3 184 183 185 
3 185 186 184 
3 186 185 187 
3 187 188 186 
3 188 187 189 
3 189 190 188 
3 190 189 191 
3 191 192 190 
3 192 191 193 
3 193 194 192 
3 194 193 195 
3 195 196 194 
3 196 195 197 
3 197 198 196 
3 198 197 199 
3 199 200 198 
3 200 199 201 
3 201 202 200 
3 202 201 203 
3 203 204 202 
3 204 203 205 
3 205 206 204 
3 206 205 207 
3 207 208 206 
3 208 207 209 
3 209 210 208 
3 210 209 211 
3 211 212 210 
3 212 211 213 
3 213 214 212 
3 214 213 215 
3 215 216 214 
3 216 215 217 
3 217 218 216 
3 218 217 219 
3 219 220 218 
3 220 219 221 
3 221 222 220 
3 222 221 223 
3 223 224 222 
3 224 223 225 
3 2 226 227 
4 0 2 227 228 
3 72 229 230 
4 72 74 231 229 
3 146 232 233 
4 146 233 234 144 
26 231 235 236 237 238 239 240 241 242 243 244 245 246 247 248 249 250 251 228 227 226 234 233 232 230 229 
4 71 252 253 70 
3 71 254 252 
4 142 255 256 143 
3 143 256 257 
4 225 258 259 224 
3 225 260 258 
40 71 69 67 65 63 61 59 57 55 53 51 49 47 45 43 41 39 37 35 33 31 29 27 25 23 21 19 17 15 13 11 9 7 5 3 0 228 251 261 254 
4 246 245 262 263 
4 249 248 264 265 
4 248 247 266 264 
4 250 249 265 267 
4 247 246 263 266 
4 251 250 267 261 
40 74 75 77 79 81 83 85 87 89 91 93 95 97 99 101 103 105 107 109 111 113 115 117 119 121 123 125 127 129 131 133 135 137 139 141 143 257 268 235 231 
4 241 240 269 270 
4 238 237 271 272 
4 239 238 272 273 
4 237 236 274 271 
4 240 239 273 269 
4 236 235 268 274 
81 2 1 4 6 8 10 12 14 16 18 20 22 24 26 28 30 32 34 36 38 40 42 44 46 48 50 52 54 56 58 60 62 64 66 68 70 253 260 225 223 221 219 217 215 213 211 209 207 205 203 201 199 197 195 193 191 189 187 185 183 181 179 177 175 173 171 169 167 165 163 161 159 157 155 153 151 149 147 144 234 226 
4 245 244 275 262 
81 146 145 148 150 152 154 156 158 160 162 164 166 168 170 172 174 176 178 180 182 184 186 188 190 192 194 196 198 200 202 204 206 208 210 212 214 216 218 220 222 224 259 255 142 140 138 136 134 132 130 128 126 124 122 120 118 116 114 112 110 108 106 104 102 100 98 96 94 92 90 88 86 84 82 80 78 76 73 72 230 232 
4 242 241 270 276 
4 243 242 276 277 
4 244 243 277 275 
26 259 258 260 253 252 254 261 267 265 264 266 263 262 275 277 276 270 269 273 272 271 274 268 257 256 255 

CELL_DATA 254
FIELD FieldData 2
OrigCellIdsA 1 254 int
0 1 2 3 4 5 6 7 8 
9 10 11 12 13 14 15 16 17 
18 19 20 21 22 23 24 25 26 
27 28 29 30 31 32 33 34 35 
36 37 38 39 40 41 42 43 44 
45 46 47 48 49 50 51 52 53 
54 55 56 57 58 59 60 61 62 
63 64 65 66 67 68 69 76 77 
78 79 80 81 82 83 84 85 86 
87 88 89 90 91 92 93 94 95 
96 97 98 99 100 101 102 103 104 
105 106 107 108 109 110 111 112 113 
114 115 116 117 118 119 120 121 122 
123 124 125 126 127 128 129 130 131 
132 133 134 135 136 137 138 139 140 
141 142 143 144 145 152 153 154 155 
156 157 158 159 160 161 162 163 164 
165 166 167 168 169 170 171 172 173 
174 175 176 177 178 179 180 181 182 
183 184 185 186 187 188 189 190 191 
192 193 194 195 196 197 198 199 200 
201 202 203 204 205 206 207 208 209 
210 211 212 213 214 215 216 217 218 
219 220 221 222 223 224 225 226 227 
228 229 230 231 238 239 247 248 260 
261 264 70 71 146 147 232 233 240 
241 242 243 244 245 246 249 250 251 
252 253 254 255 256 257 258 259 262 
263 -1 
OrigCellIdsB 1 254 int
-1 -1 -1 -1 -1 -1 -1 -1 -1 
-1 -1 -1 -1 -1 -1 -1 -1 -1 
-1 -1 -1 -1 -1 -1 -1 -1 -1 
-1 -1 -1 -1 -1 -1 -1 -1 -1 
-1 -1 -1 -1 -1 -1 -1 -1 -1 
-1 -1 -1 -1 -1 -1 -1 -1 -1 
-1 -1 -1 -1 -1 -1 -1 -1 -1 
-1 -1 -1 -1 -1 -1 -1 -1 -1 
-1 -1 -1 -1 -1 -1 -1 -1 -1 
-1 -1 -1 -1 -1 -1 -1 -1 -1 
-1 -1 -1 -1 -1 -1 -1 -1 -1 
-1 -1 -1 -1 -1 -1 -1 -1 -1 
-1 -1 -1 -1 -1 -1 -1 -1 -1 
-1 -1 -1 -1 -1 -1 -1 -1 -1 
-1 -1 -1 -1 -1 -1 -1 -1 -1 
-1 -1 -1 -1 -1 -1 -1 -1 -1 
-1 -1 -1 -1 -1 -1 -1 -1 -1 
-1 -1 -1 -1 -1 -1 -1 -1 -1 
-1 -1 -1 -1 -1 -1 -1 -1 -1 
-1 -1 -1 -1 -1 -1 -1 -1 -1 
-1 -1 -1 -1 -1 -1 -1 -1 -1 
-1 -1 -1 -1 -1 -1 -1 -1 -1 
-1 -1 -1 -1 -1 -1 -1 -1 -1 
-1 -1 -1 -1 -1 -1 -1 -1 -1 
-1 -1 -1 -1 -1 -1 -1 -1 -1 
-1 -1 -1 -1 -1 -1 -1 -1 -1 
-1 -1 -1 -1 -1 -1 -1 -1 -1 
-1 -1 -1 -1 -1 -1 -1 -1 -1 
-1 0 
POINT_DATA 278
SCALARS RegionId vtkIdType
LOOKUP_TABLE default
0 0 0 0 0 0 0 0 0 
0 0 0 0 0 0 0 0 0 
0 0 0 0 0 0 0 0 0 
0 0 0 0 0 0 0 0 0 
0 0 0 0 0 0 0 0 0 
0 0 0 0 0 0 0 0 0 
0 0 0 0 0 0 0 0 0 
0 0 0 0 0 0 0 0 0 
0 0 0 0 0 0 0 0 0 
0 0 0 0 0 0 0 0 0 
0 0 0 0 0 0 0 0 0 
0 0 0 0 0 0 0 0 0 
0 0 0 0 0 0 0 0 0 
0 0 0 0 0 0 0 0 0 
0 0 0 0 0 0 0 0 0 
0 0 0 0 0 0 0 0 0 
0 0 0 0 0 0 0 0 0 
0 0 0 0 0 0 0 0 0 
0 0 0 0 0 0 0 0 0 
0 0 0 0 0 0 0 0 0 
0 0 0 0 0 0 0 0 0 
0 0 0 0 0 0 0 0 0 
0 0 0 0 0 0 0 0 0 
0 0 0 0 0 0 0 0 0 
0 0 0 0 0 0 0 0 0 
0 0 0 0 0 0 0 0 0 
0 0 0 0 0 0 0 0 0 
0 0 0 0 0 0 0 0 0 
0 0 0 0 0 0 0 0 0 
0 0 0 0 0 0 0 0 0 
0 0 0 0 0 0 0 0 
