# vtk DataFile Version 4.0
vtk output
ASCII
DATASET POLYDATA
POINTS 254 double
0.46666667 -0.54166669 0.54166663 0.46666667 -0.39166668 0.54166663 0.46666667 -0.54166669 1.16666663 0.46666667 -0.39166668 1.16666663 0.61666667 -0.39166668 0.54166663 0.61666667 -0.39166668 1.16666663 0.61666667 -0.54166669 0.54166663 0.61666667 -0.54166669 1.16666663 1.54999995 -0.54166669 0.54166663 1.54999995 -0.54166669 1.16666663 1.54999995 -0.39166668 0.54166663 1.54999995 -0.39166668 1.16666663 1.70000005 -0.39166668 0.54166663 1.70000005 -0.39166668 1.16666663 1.70000005 -0.54166669 0.54166663 1.70000005 -0.54166669 1.16666663 2.63333344 -0.54166669 0.54166663 2.63333344 -0.54166669 1.16666663 2.63333344 -0.39166668 0.54166663 2.63333344 -0.39166668 1.16666663 2.78333330 -0.39166668 0.54166663 2.78333330 -0.39166668 1.16666663 2.78333330 -0.54166669 0.54166663 2.78333330 -0.54166669 1.16666663 3.71666670 -0.54166669 0.54166663 3.71666670 -0.54166669 1.16666663 3.71666670 -0.39166668 0.54166663 3.71666670 -0.39166668 1.16666663 3.86666656 -0.39166668 0.54166663 3.86666656 -0.39166668 1.16666663 3.86666656 -0.54166669 0.54166663 3.86666656 -0.54166669 1.16666663 4.80000019 -0.54166669 0.54166663 4.80000019 -0.54166669 1.16666663 4.80000019 -0.39166668 0.54166663 4.80000019 -0.39166668 1.16666663 4.94999981 -0.39166668 0.54166663 4.94999981 -0.39166668 1.16666663 4.94999981 -0.54166669 0.54166663 4.94999981 -0.54166669 1.16666663 5.88333321 -0.54166669 0.54166663 5.88333321 -0.54166669 1.16666663 5.88333321 -0.39166668 0.54166663 5.88333321 -0.39166668 1.16666663 6.03333330 -0.39166668 0.54166663 6.03333330 -0.39166668 1.16666663 6.03333330 -0.54166669 0.54166663 6.03333330 -0.54166669 1.16666663 6.96666670 -0.54166669 0.54166663 6.96666670 -0.54166669 1.16666663 6.96666670 -0.39166668 0.54166663 6.96666670 -0.39166668 1.16666663 7.11666679 -0.39166668 0.54166663 7.11666679 -0.39166668 1.16666663 7.11666679 -0.54166669 0.54166663 7.11666679 -0.54166669 1.16666663 8.05000019 -0.54166669 0.54166663 8.05000019 -0.54166669 1.16666663 8.05000019 -0.39166668 0.54166663 8.05000019 -0.39166668 1.16666663 8.19999981 -0.39166668 0.54166663 8.19999981 -0.39166668 1.16666663 8.19999981 -0.54166669 0.54166663 8.19999981 -0.54166669 1.16666663 9.13333321 -0.54166669 0.54166663 9.13333321 -0.54166669 1.16666663 9.13333321 -0.39166668 0.54166663 9.13333321 -0.39166668 1.16666663 9.28333378 -0.39166668 0.54166663 9.28333378 -0.39166668 1.16666663 9.28333378 -0.54166669 0.54166663 9.28333378 -0.54166669 1.16666663 10.21666622 -0.54166669 0.54166663 10.21666622 -0.54166669 1.16666663 10.21666622 -0.39166668 0.54166663 10.21666622 -0.39166668 1.16666663 10.36666679 -0.39166668 0.54166663 10.36666679 -0.39166668 1.16666663 10.36666679 -0.54166669 0.54166663 10.36666679 -0.54166669 1.16666663 11.37500000 -0.54166669 0.54166663 11.37500000 -0.54166669 1.16666663 -0.54166669 -0.54166669 1.16666663 11.37500000 0.15000001 1.16666663 11.37500000 1.00000000 1.16666663 11.37500000 1.00000000 0.54166663 11.37500000 0.15000001 1.31666660 11.37500000 1.00000000 1.31666660 0.46666667 -0.54166669 -1.16666663 0.46666667 -0.39166668 -0.54166663 0.46666667 -0.54166669 -0.54166663 0.46666667 -0.39166668 -1.16666663 0.61666667 -0.39166668 -0.54166663 0.61666667 -0.39166668 -1.16666663 0.61666667 -0.54166669 -0.54166663 0.61666667 -0.54166669 -1.16666663 1.54999995 -0.54166669 -0.54166663 1.54999995 -0.54166669 -1.16666663 1.54999995 -0.39166668 -0.54166663 1.54999995 -0.39166668 -1.16666663 1.70000005 -0.39166668 -0.54166663 1.70000005 -0.39166668 -1.16666663 1.70000005 -0.54166669 -0.54166663 1.70000005 -0.54166669 -1.16666663 2.63333344 -0.54166669 -0.54166663 2.63333344 -0.54166669 -1.16666663 2.63333344 -0.39166668 -0.54166663 2.63333344 -0.39166668 -1.16666663 2.78333330 -0.39166668 -0.54166663 2.78333330 -0.39166668 -1.16666663 2.78333330 -0.54166669 -0.54166663 2.78333330 -0.54166669 -1.16666663 3.71666670 -0.54166669 -0.54166663 3.71666670 -0.54166669 -1.16666663 3.71666670 -0.39166668 -0.54166663 3.71666670 -0.39166668 -1.16666663 3.86666656 -0.39166668 -0.54166663 3.86666656 -0.39166668 -1.16666663 3.86666656 -0.54166669 -0.54166663 3.86666656 -0.54166669 -1.16666663 4.80000019 -0.54166669 -0.54166663 4.80000019 -0.54166669 -1.16666663 4.80000019 -0.39166668 -0.54166663 4.80000019 -0.39166668 -1.16666663 4.94999981 -0.39166668 -0.54166663 4.94999981 -0.39166668 -1.16666663 4.94999981 -0.54166669 -0.54166663 4.94999981 -0.54166669 -1.16666663 5.88333321 -0.54166669 -0.54166663 5.88333321 -0.54166669 -1.16666663 5.88333321 -0.39166668 -0.54166663 5.88333321 -0.39166668 -1.16666663 6.03333330 -0.39166668 -0.54166663 6.03333330 -0.39166668 -1.16666663 6.03333330 -0.54166669 -0.54166663 6.03333330 -0.54166669 -1.16666663 6.96666670 -0.54166669 -0.54166663 6.96666670 -0.54166669 -1.16666663 6.96666670 -0.39166668 -0.54166663 6.96666670 -0.39166668 -1.16666663 7.11666679 -0.39166668 -0.54166663 7.11666679 -0.39166668 -1.16666663 7.11666679 -0.54166669 -0.54166663 7.11666679 -0.54166669 -1.16666663 8.05000019 -0.54166669 -0.54166663 8.05000019 -0.54166669 -1.16666663 8.05000019 -0.39166668 -0.54166663 8.05000019 -0.39166668 -1.16666663 8.19999981 -0.39166668 -0.54166663 8.19999981 -0.39166668 -1.16666663 8.19999981 -0.54166669 -0.54166663 8.19999981 -0.54166669 -1.16666663 9.13333321 -0.54166669 -0.54166663 9.13333321 -0.54166669 -1.16666663 9.13333321 -0.39166668 -0.54166663 9.13333321 -0.39166668 -1.16666663 9.28333378 -0.39166668 -0.54166663 9.28333378 -0.39166668 -1.16666663 9.28333378 -0.54166669 -0.54166663 9.28333378 -0.54166669 -1.16666663 10.21666622 -0.54166669 -0.54166663 10.21666622 -0.54166669 -1.16666663 10.21666622 -0.39166668 -0.54166663 10.21666622 -0.39166668 -1.16666663 10.36666679 -0.39166668 -0.54166663 10.36666679 -0.39166668 -1.16666663 10.36666679 -0.54166669 -0.54166663 10.36666679 -0.54166669 -1.16666663 11.37500000 -0.54166669 -0.54166663 11.37500000 -0.54166669 -1.16666663 -0.54166669 -0.54166669 -1.16666663 11.37500000 0.15000001 -1.16666663 11.37500000 1.00000000 -1.16666663 11.37500000 1.00000000 -0.54166663 11.37500000 1.00000000 -1.31666660 11.37500000 0.15000001 -1.31666660 0.43333334 0.00000000 0.54166663 0.86666667 0.43333334 0.54166663 1.29999995 0.00000000 0.54166663 1.73333335 0.43333334 0.54166663 2.16666675 0.00000000 0.54166663 2.59999990 0.43333334 0.54166663 3.03333330 0.00000000 0.54166663 3.46666670 0.43333334 0.54166663 3.90000010 0.00000000 0.54166663 4.33333349 0.43333334 0.54166663 4.76666689 0.00000000 0.54166663 5.19999981 0.43333334 0.54166663 5.63333321 0.00000000 0.54166663 6.06666660 0.43333334 0.54166663 6.50000000 0.00000000 0.54166663 6.93333340 0.43333334 0.54166663 7.36666679 0.00000000 0.54166663 7.80000019 0.43333334 0.54166663 8.23333359 0.00000000 0.54166663 8.66666698 0.43333334 0.54166663 9.10000038 0.00000000 0.54166663 9.53333378 0.43333334 0.54166663 9.96666622 0.00000000 0.54166663 10.39999962 0.43333334 0.54166663 10.83333302 0.00000000 0.54166663 11.26666641 0.43333334 0.54166663 11.37500000 0.32499999 0.54166663 0.86666667 0.43333334 -0.54166663 0.43333334 0.00000000 -0.54166663 1.29999995 0.00000000 -0.54166663 2.16666675 0.00000000 -0.54166663 1.73333335 0.43333334 -0.54166663 3.03333330 0.00000000 -0.54166663 2.59999990 0.43333334 -0.54166663 3.90000010 0.00000000 -0.54166663 3.46666670 0.43333334 -0.54166663 4.76666689 0.00000000 -0.54166663 4.33333349 0.43333334 -0.54166663 5.19999981 0.43333334 -0.54166663 5.63333321 0.00000000 -0.54166663 6.50000000 0.00000000 -0.54166663 6.06666660 0.43333334 -0.54166663 7.36666679 0.00000000 -0.54166663 6.93333340 0.43333334 -0.54166663 8.23333359 0.00000000 -0.54166663 7.80000019 0.43333334 -0.54166663 9.10000038 0.00000000 -0.54166663 8.66666698 0.43333334 -0.54166663 9.53333378 0.43333334 -0.54166663 9.96666622 0.00000000 -0.54166663 10.39999962 0.43333334 -0.54166663 10.83333302 0.00000000 -0.54166663 11.37500000 0.32499999 -0.54166663 11.26666641 0.43333334 -0.54166663 -0.54166669 -0.54166669 0.54166663 -0.09171147 -0.09171147 1.16666663 0.15000001 0.15000001 1.16666663 1.00000000 1.00000000 0.62252327 1.00000000 1.00000000 1.16666663 1.00000000 1.00000000 1.31666660 0.15000001 0.15000001 1.31666660 1.00000000 1.00000000 1.18607222 0.15000001 0.15000001 1.30796031 -0.54166669 -0.54166669 -0.54166663 -0.09171147 -0.09171147 -1.16666663 0.15000001 0.15000001 -1.16666663 1.00000000 1.00000000 -1.16666663 1.00000000 1.00000000 -0.62252327 0.15000001 0.15000001 -1.31666660 1.00000000 1.00000000 -1.31666660 1.00000000 1.00000000 -1.18607222 0.15000001 0.15000001 -1.30796031 0.21666667 0.21666667 0.54166663 0.21666667 0.21666667 -0.54166663 1.00000000 1.00000000 0.54166663 1.00000000 1.00000000 -0.54166663 0.21666667 0.21666667 0.00000000 1.00000000 1.00000000 -0.44642854
POLYGONS 317 1455
3 0 1 2 
3 2 1 3 
3 1 4 3 
3 3 4 5 
3 4 6 5 
3 5 6 7 
3 6 8 7 
3 7 8 9 
3 8 10 9 
3 9 10 11 
3 10 12 11 
3 11 12 13 
3 12 14 13 
3 13 14 15 
3 14 16 15 
3 15 16 17 
3 16 18 17 
3 17 18 19 
3 18 20 19 
3 19 20 21 
3 20 22 21 
3 21 22 23 
3 22 24 23 
3 23 24 25 
3 24 26 25 
3 25 26 27 
3 26 28 27 
3 27 28 29 
3 28 30 29 
3 29 30 31 
3 30 32 31 
3 31 32 33 
3 32 34 33 
3 33 34 35 
3 34 36 35 
3 35 36 37 
3 36 38 37 
3 37 38 39 
3 38 40 39 
3 39 40 41 
3 40 42 41 
3 41 42 43 
3 42 44 43 
3 43 44 45 
3 44 46 45 
3 45 46 47 
3 46 48 47 
3 47 48 49 
3 48 50 49 
3 49 50 51 
3 50 52 51 
3 51 52 53 
3 52 54 53 
3 53 54 55 
3 54 56 55 
3 55 56 57 
3 56 58 57 
3 57 58 59 
3 58 60 59 
3 59 60 61 
3 60 62 61 
3 61 62 63 
3 62 64 63 
3 63 64 65 
3 64 66 65 
3 65 66 67 
3 66 68 67 
3 67 68 69 
3 68 70 69 
3 69 70 71 
3 70 72 71 
3 71 72 73 
3 72 74 73 
3 73 74 75 
3 74 76 75 
3 75 76 77 
3 76 78 77 
3 77 78 79 
3 78 80 79 
3 79 80 81 
3 82 0 2 
4 5 7 9 11 
4 13 15 17 19 
4 21 23 25 27 
4 29 31 33 35 
4 37 39 41 43 
4 45 47 49 51 
4 53 55 57 59 
4 61 63 65 67 
4 69 71 73 75 
4 77 79 81 83 
4 84 83 81 85 
3 86 84 87 
3 83 84 86 
3 88 89 90 
3 91 89 88 
3 91 92 89 
3 93 92 91 
3 93 94 92 
3 95 94 93 
3 95 96 94 
3 97 96 95 
3 97 98 96 
3 99 98 97 
3 99 100 98 
3 101 100 99 
3 101 102 100 
3 103 102 101 
3 103 104 102 
3 105 104 103 
3 105 106 104 
3 107 106 105 
3 107 108 106 
3 109 108 107 
3 109 110 108 
3 111 110 109 
3 111 112 110 
3 113 112 111 
3 113 114 112 
3 115 114 113 
3 115 116 114 
3 117 116 115 
3 117 118 116 
3 119 118 117 
3 119 120 118 
3 121 120 119 
3 121 122 120 
3 123 122 121 
3 123 124 122 
3 125 124 123 
3 125 126 124 
3 127 126 125 
3 127 128 126 
3 129 128 127 
3 129 130 128 
3 131 130 129 
3 131 132 130 
3 133 132 131 
3 133 134 132 
3 135 134 133 
3 135 136 134 
3 137 136 135 
3 137 138 136 
3 139 138 137 
3 139 140 138 
3 141 140 139 
3 141 142 140 
3 143 142 141 
3 143 144 142 
3 145 144 143 
3 145 146 144 
3 147 146 145 
3 147 148 146 
3 149 148 147 
3 149 150 148 
3 151 150 149 
3 151 152 150 
3 153 152 151 
3 153 154 152 
3 155 154 153 
3 155 156 154 
3 157 156 155 
3 157 158 156 
3 159 158 157 
3 159 160 158 
3 161 160 159 
3 161 162 160 
3 163 162 161 
3 163 164 162 
3 165 164 163 
3 165 166 164 
3 167 166 165 
3 167 168 166 
3 169 168 167 
3 88 90 170 
4 165 171 169 167 
4 163 161 159 157 
4 155 153 151 149 
4 147 145 143 141 
4 139 137 135 133 
4 131 129 127 125 
4 123 121 119 117 
4 115 113 111 109 
4 107 105 103 101 
4 99 97 95 93 
4 171 172 173 169 
3 174 172 175 
3 175 172 171 
4 176 177 4 1 
6 177 178 10 8 6 4 
5 178 179 180 12 10 
5 180 18 16 14 12 
5 180 181 182 20 18 
6 182 183 184 28 26 20 
7 184 185 186 34 32 30 28 
4 186 187 36 34 
6 187 188 42 40 38 36 
5 188 189 190 44 42 
5 190 50 48 46 44 
5 190 191 192 52 50 
6 192 193 194 60 58 52 
7 194 195 196 66 64 62 60 
4 196 197 68 66 
6 197 198 74 72 70 68 
4 198 199 76 74 
4 199 200 78 76 
5 200 201 202 80 78 
4 58 56 54 52 
4 26 24 22 20 
4 89 92 203 204 
6 92 94 96 98 205 203 
5 98 100 206 207 205 
5 100 102 104 106 206 
5 106 108 208 209 206 
5 108 110 112 114 208 
5 114 116 210 211 208 
7 116 118 120 122 212 213 210 
4 122 124 214 212 
6 124 126 128 130 215 214 
5 130 132 216 217 215 
5 132 134 136 138 216 
5 138 140 218 219 216 
5 140 142 144 146 218 
5 146 148 220 221 218 
7 148 150 152 154 222 223 220 
4 154 156 224 222 
6 156 158 160 162 225 224 
4 162 164 226 225 
4 164 166 227 226 
5 166 168 228 229 227 
4 80 202 85 81 
4 169 173 228 168 
3 204 203 176 
3 177 176 203 
3 203 205 177 
3 178 177 205 
3 205 207 178 
3 179 178 207 
3 207 206 179 
3 180 179 206 
3 206 209 180 
3 181 180 209 
3 209 208 181 
3 182 181 208 
3 208 211 182 
3 183 182 211 
3 211 210 183 
3 184 183 210 
3 210 213 184 
3 185 184 213 
3 213 212 185 
3 186 185 212 
3 212 214 186 
3 187 186 214 
3 214 215 187 
3 188 187 215 
3 215 217 188 
3 189 188 217 
3 217 216 189 
3 190 189 216 
3 216 219 190 
3 191 190 219 
3 219 218 191 
3 192 191 218 
3 218 221 192 
3 193 192 221 
3 221 220 193 
3 194 193 220 
3 220 223 194 
3 195 194 223 
3 223 222 195 
3 196 195 222 
3 222 224 196 
3 197 196 224 
3 224 225 197 
3 198 197 225 
3 225 226 198 
3 199 198 226 
3 226 227 199 
3 200 199 227 
3 227 229 200 
3 201 200 229 
3 229 228 201 
3 202 201 228 
3 228 173 202 
3 85 202 173 
3 82 230 0 
4 3 231 82 2 
23 232 231 3 5 11 13 19 21 27 29 35 37 43 45 51 53 59 61 67 69 75 77 83 
3 233 234 84 
4 235 236 86 87 
3 237 235 87 
4 236 238 83 86 
4 84 234 237 87 
3 238 232 83 
3 239 170 90 
23 165 163 157 155 149 147 141 139 133 131 125 123 117 115 109 107 101 99 93 91 240 241 171 
4 170 240 91 88 
3 242 243 172 
4 244 245 174 175 
3 245 246 174 
4 247 244 175 171 
4 174 246 242 172 
3 241 247 171 
5 230 248 176 1 0 
5 89 204 249 239 90 
4 85 250 233 84 
4 172 243 251 173 
3 252 249 204 
4 176 248 252 204 
4 173 251 253 85 
3 253 250 85 
5 238 236 235 248 232 
5 248 230 82 231 232 
14 235 237 234 233 250 253 251 243 242 246 245 249 252 248 
5 245 244 247 241 249 
5 241 240 170 239 249 

CELL_DATA 317
FIELD FieldData 2
OrigCellIdsA 1 317 int
0 1 2 3 4 5 6 7 8 
9 10 11 12 13 14 15 16 17 
18 19 20 21 22 23 24 25 26 
27 28 29 30 31 32 33 34 35 
36 37 38 39 40 41 42 43 44 
45 46 47 48 49 50 51 52 53 
54 55 56 57 58 59 60 61 62 
63 64 65 66 67 68 69 70 71 
72 73 74 75 76 77 78 79 82 
85 86 87 88 89 90 91 92 93 
94 97 99 103 107 108 109 110 111 
112 113 114 115 116 117 118 119 120 
121 122 123 124 125 126 127 128 129 
130 131 132 133 134 135 136 137 138 
139 140 141 142 143 144 145 146 147 
148 149 150 151 152 153 154 155 156 
157 158 159 160 161 162 163 164 165 
166 167 168 169 170 171 172 173 174 
175 176 177 178 179 180 181 182 183 
184 185 186 189 190 192 193 194 195 
196 197 198 199 200 203 206 210 216 
217 218 219 220 221 222 223 224 225 
226 227 228 229 230 231 232 233 234 
235 236 238 239 240 241 242 243 244 
245 246 247 248 249 250 251 252 253 
254 255 256 257 258 260 263 266 267 
268 269 270 271 272 273 274 275 276 
277 278 279 280 281 282 283 284 285 
286 287 288 289 290 291 292 293 294 
295 296 297 298 299 300 301 302 303 
304 305 306 307 308 309 310 311 312 
313 314 315 316 317 318 319 81 83 
84 95 98 100 102 104 106 188 191 
201 202 205 207 209 211 213 215 237 
261 262 264 265 320 321 -1 -1 -1 
-1 -1 
OrigCellIdsB 1 317 int
-1 -1 -1 -1 -1 -1 -1 -1 -1 
-1 -1 -1 -1 -1 -1 -1 -1 -1 
-1 -1 -1 -1 -1 -1 -1 -1 -1 
-1 -1 -1 -1 -1 -1 -1 -1 -1 
-1 -1 -1 -1 -1 -1 -1 -1 -1 
-1 -1 -1 -1 -1 -1 -1 -1 -1 
-1 -1 -1 -1 -1 -1 -1 -1 -1 
-1 -1 -1 -1 -1 -1 -1 -1 -1 
-1 -1 -1 -1 -1 -1 -1 -1 -1 
-1 -1 -1 -1 -1 -1 -1 -1 -1 
-1 -1 -1 -1 -1 -1 -1 -1 -1 
-1 -1 -1 -1 -1 -1 -1 -1 -1 
-1 -1 -1 -1 -1 -1 -1 -1 -1 
-1 -1 -1 -1 -1 -1 -1 -1 -1 
-1 -1 -1 -1 -1 -1 -1 -1 -1 
-1 -1 -1 -1 -1 -1 -1 -1 -1 
-1 -1 -1 -1 -1 -1 -1 -1 -1 
-1 -1 -1 -1 -1 -1 -1 -1 -1 
-1 -1 -1 -1 -1 -1 -1 -1 -1 
-1 -1 -1 -1 -1 -1 -1 -1 -1 
-1 -1 -1 -1 -1 -1 -1 -1 -1 
-1 -1 -1 -1 -1 -1 -1 -1 -1 
-1 -1 -1 -1 -1 -1 -1 -1 -1 
-1 -1 -1 -1 -1 -1 -1 -1 -1 
-1 -1 -1 -1 -1 -1 -1 -1 -1 
-1 -1 -1 -1 -1 -1 -1 -1 -1 
-1 -1 -1 -1 -1 -1 -1 -1 -1 
-1 -1 -1 -1 -1 -1 -1 -1 -1 
-1 -1 -1 -1 -1 -1 -1 -1 -1 
-1 -1 -1 -1 -1 -1 -1 -1 -1 
-1 -1 -1 -1 -1 -1 -1 -1 -1 
-1 -1 -1 -1 -1 -1 -1 -1 -1 
-1 -1 -1 -1 -1 -1 -1 -1 -1 
-1 -1 -1 -1 -1 -1 -1 -1 -1 
-1 -1 -1 -1 -1 -1 0 0 0 
0 0 
POINT_DATA 254
SCALARS RegionId vtkIdType
LOOKUP_TABLE default
0 0 0 0 0 0 0 0 0 
0 0 0 0 0 0 0 0 0 
0 0 0 0 0 0 0 0 0 
0 0 0 0 0 0 0 0 0 
0 0 0 0 0 0 0 0 0 
0 0 0 0 0 0 0 0 0 
0 0 0 0 0 0 0 0 0 
0 0 0 0 0 0 0 0 0 
0 0 0 0 0 0 0 0 0 
0 0 0 0 0 0 0 0 0 
0 0 0 0 0 0 0 0 0 
0 0 0 0 0 0 0 0 0 
0 0 0 0 0 0 0 0 0 
0 0 0 0 0 0 0 0 0 
0 0 0 0 0 0 0 0 0 
0 0 0 0 0 0 0 0 0 
0 0 0 0 0 0 0 0 0 
0 0 0 0 0 0 0 0 0 
0 0 0 0 0 0 0 0 0 
0 0 0 0 0 0 0 0 0 
0 0 0 0 0 0 0 0 0 
0 0 0 0 0 0 0 0 0 
0 0 0 0 0 0 0 0 0 
0 0 0 0 0 0 0 0 0 
0 0 0 0 0 0 0 0 0 
0 0 0 0 0 0 0 0 0 
0 0 0 0 0 0 0 0 0 
0 0 0 0 0 0 0 0 0 
0 0 
