# vtk DataFile Version 4.0
vtk output
ASCII
DATASET POLYDATA
POINTS 292 double
-0.46666667 -0.54166669 1.16666663 -0.46666667 -0.39166668 0.54166663 -0.46666667 -0.54166669 0.54166663 -0.46666667 -0.39166668 1.16666663 -0.61666667 -0.39166668 0.54166663 -0.61666667 -0.39166668 1.16666663 -0.61666667 -0.54166669 0.54166663 -0.61666667 -0.54166669 1.16666663 -1.54999995 -0.54166669 0.54166663 -1.54999995 -0.54166669 1.16666663 -1.54999995 -0.39166668 0.54166663 -1.54999995 -0.39166668 1.16666663 -1.70000005 -0.39166668 0.54166663 -1.70000005 -0.39166668 1.16666663 -1.70000005 -0.54166669 0.54166663 -1.70000005 -0.54166669 1.16666663 -2.63333344 -0.54166669 0.54166663 -2.63333344 -0.54166669 1.16666663 -2.63333344 -0.39166668 0.54166663 -2.63333344 -0.39166668 1.16666663 -2.78333330 -0.39166668 0.54166663 -2.78333330 -0.39166668 1.16666663 -2.78333330 -0.54166669 0.54166663 -2.78333330 -0.54166669 1.16666663 -3.71666670 -0.54166669 0.54166663 -3.71666670 -0.54166669 1.16666663 -3.71666670 -0.39166668 0.54166663 -3.71666670 -0.39166668 1.16666663 -3.86666656 -0.39166668 0.54166663 -3.86666656 -0.39166668 1.16666663 -3.86666656 -0.54166669 0.54166663 -3.86666656 -0.54166669 1.16666663 -4.80000019 -0.54166669 0.54166663 -4.80000019 -0.54166669 1.16666663 -4.80000019 -0.39166668 0.54166663 -4.80000019 -0.39166668 1.16666663 -4.94999981 -0.39166668 0.54166663 -4.94999981 -0.39166668 1.16666663 -4.94999981 -0.54166669 0.54166663 -4.94999981 -0.54166669 1.16666663 -5.88333321 -0.54166669 0.54166663 -5.88333321 -0.54166669 1.16666663 -5.88333321 -0.39166668 0.54166663 -5.88333321 -0.39166668 1.16666663 -6.03333330 -0.39166668 0.54166663 -6.03333330 -0.39166668 1.16666663 -6.03333330 -0.54166669 0.54166663 -6.03333330 -0.54166669 1.16666663 -6.96666670 -0.54166669 0.54166663 -6.96666670 -0.54166669 1.16666663 -6.96666670 -0.39166668 0.54166663 -6.96666670 -0.39166668 1.16666663 -7.11666679 -0.39166668 0.54166663 -7.11666679 -0.39166668 1.16666663 -7.11666679 -0.54166669 0.54166663 -7.11666679 -0.54166669 1.16666663 -8.05000019 -0.54166669 0.54166663 -8.05000019 -0.54166669 1.16666663 -8.05000019 -0.39166668 0.54166663 -8.05000019 -0.39166668 1.16666663 -8.19999981 -0.39166668 0.54166663 -8.19999981 -0.39166668 1.16666663 -8.19999981 -0.54166669 0.54166663 -8.19999981 -0.54166669 1.16666663 -9.13333321 -0.54166669 0.54166663 -9.13333321 -0.54166669 1.16666663 -9.13333321 -0.39166668 0.54166663 -9.13333321 -0.39166668 1.16666663 -9.28333378 -0.39166668 0.54166663 -9.28333378 -0.39166668 1.16666663 -9.28333378 -0.54166669 0.54166663 -9.28333378 -0.54166669 1.16666663 -10.21666622 -0.54166669 0.54166663 -10.21666622 -0.54166669 1.16666663 -10.21666622 -0.39166668 0.54166663 -10.21666622 -0.39166668 1.16666663 -10.36666679 -0.39166668 0.54166663 -10.36666679 -0.39166668 1.16666663 -10.36666679 -0.54166669 0.54166663 -10.36666679 -0.54166669 1.16666663 -11.30000019 -0.54166669 0.54166663 -11.30000019 -0.54166669 1.16666663 -11.30000019 -0.39166668 0.54166663 -11.30000019 -0.39166668 1.16666663 -11.44999981 -0.39166668 0.54166663 -11.44999981 -0.39166668 1.16666663 -11.44999981 -0.54166669 0.54166663 -11.44999981 -0.54166669 1.16666663 -12.45833302 -0.54166669 0.54166663 -12.45833302 -0.54166669 1.16666663 0.54166669 -0.54166669 1.16666663 -12.45833302 0.15000001 1.16666663 -12.45833302 1.00000000 0.54166663 -12.45833302 1.00000000 1.16666663 -12.45833302 1.00000000 1.31666660 -12.45833302 0.15000001 1.31666660 -0.46666667 -0.54166669 -0.54166663 -0.46666667 -0.39166668 -0.54166663 -0.46666667 -0.54166669 -1.16666663 -0.46666667 -0.39166668 -1.16666663 -0.61666667 -0.39166668 -0.54166663 -0.61666667 -0.39166668 -1.16666663 -0.61666667 -0.54166669 -0.54166663 -0.61666667 -0.54166669 -1.16666663 -1.54999995 -0.54166669 -0.54166663 -1.54999995 -0.54166669 -1.16666663 -1.54999995 -0.39166668 -0.54166663 -1.54999995 -0.39166668 -1.16666663 -1.70000005 -0.39166668 -0.54166663 -1.70000005 -0.39166668 -1.16666663 -1.70000005 -0.54166669 -0.54166663 -1.70000005 -0.54166669 -1.16666663 -2.63333344 -0.54166669 -0.54166663 -2.63333344 -0.54166669 -1.16666663 -2.63333344 -0.39166668 -0.54166663 -2.63333344 -0.39166668 -1.16666663 -2.78333330 -0.39166668 -0.54166663 -2.78333330 -0.39166668 -1.16666663 -2.78333330 -0.54166669 -0.54166663 -2.78333330 -0.54166669 -1.16666663 -3.71666670 -0.54166669 -0.54166663 -3.71666670 -0.54166669 -1.16666663 -3.71666670 -0.39166668 -0.54166663 -3.71666670 -0.39166668 -1.16666663 -3.86666656 -0.39166668 -0.54166663 -3.86666656 -0.39166668 -1.16666663 -3.86666656 -0.54166669 -0.54166663 -3.86666656 -0.54166669 -1.16666663 -4.80000019 -0.54166669 -0.54166663 -4.80000019 -0.54166669 -1.16666663 -4.80000019 -0.39166668 -0.54166663 -4.80000019 -0.39166668 -1.16666663 -4.94999981 -0.39166668 -0.54166663 -4.94999981 -0.39166668 -1.16666663 -4.94999981 -0.54166669 -0.54166663 -4.94999981 -0.54166669 -1.16666663 -5.88333321 -0.54166669 -0.54166663 -5.88333321 -0.54166669 -1.16666663 -5.88333321 -0.39166668 -0.54166663 -5.88333321 -0.39166668 -1.16666663 -6.03333330 -0.39166668 -0.54166663 -6.03333330 -0.39166668 -1.16666663 -6.03333330 -0.54166669 -0.54166663 -6.03333330 -0.54166669 -1.16666663 -6.96666670 -0.54166669 -0.54166663 -6.96666670 -0.54166669 -1.16666663 -6.96666670 -0.39166668 -0.54166663 -6.96666670 -0.39166668 -1.16666663 -7.11666679 -0.39166668 -0.54166663 -7.11666679 -0.39166668 -1.16666663 -7.11666679 -0.54166669 -0.54166663 -7.11666679 -0.54166669 -1.16666663 -8.05000019 -0.54166669 -0.54166663 -8.05000019 -0.54166669 -1.16666663 -8.05000019 -0.39166668 -0.54166663 -8.05000019 -0.39166668 -1.16666663 -8.19999981 -0.39166668 -0.54166663 -8.19999981 -0.39166668 -1.16666663 -8.19999981 -0.54166669 -0.54166663 -8.19999981 -0.54166669 -1.16666663 -9.13333321 -0.54166669 -0.54166663 -9.13333321 -0.54166669 -1.16666663 -9.13333321 -0.39166668 -0.54166663 -9.13333321 -0.39166668 -1.16666663 -9.28333378 -0.39166668 -0.54166663 -9.28333378 -0.39166668 -1.16666663 -9.28333378 -0.54166669 -0.54166663 -9.28333378 -0.54166669 -1.16666663 -10.21666622 -0.54166669 -0.54166663 -10.21666622 -0.54166669 -1.16666663 -10.21666622 -0.39166668 -0.54166663 -10.21666622 -0.39166668 -1.16666663 -10.36666679 -0.39166668 -0.54166663 -10.36666679 -0.39166668 -1.16666663 -10.36666679 -0.54166669 -0.54166663 -10.36666679 -0.54166669 -1.16666663 -11.30000019 -0.54166669 -0.54166663 -11.30000019 -0.54166669 -1.16666663 -11.30000019 -0.39166668 -0.54166663 -11.30000019 -0.39166668 -1.16666663 -11.44999981 -0.39166668 -0.54166663 -11.44999981 -0.39166668 -1.16666663 -11.44999981 -0.54166669 -0.54166663 -11.44999981 -0.54166669 -1.16666663 -12.45833302 -0.54166669 -0.54166663 -12.45833302 -0.54166669 -1.16666663 0.54166669 -0.54166669 -1.16666663 -12.45833302 0.15000001 -1.16666663 -12.45833302 1.00000000 -0.54166663 -12.45833302 1.00000000 -1.16666663 -12.45833302 0.15000001 -1.31666660 -12.45833302 1.00000000 -1.31666660 -0.86666667 0.43333334 0.54166663 -0.43333334 0.00000000 0.54166663 -1.29999995 0.00000000 0.54166663 -2.16666675 0.00000000 0.54166663 -1.73333335 0.43333334 0.54166663 -3.03333330 0.00000000 0.54166663 -2.59999990 0.43333334 0.54166663 -3.90000010 0.00000000 0.54166663 -3.46666670 0.43333334 0.54166663 -4.76666689 0.00000000 0.54166663 -4.33333349 0.43333334 0.54166663 -5.19999981 0.43333334 0.54166663 -5.63333321 0.00000000 0.54166663 -6.50000000 0.00000000 0.54166663 -6.06666660 0.43333334 0.54166663 -7.36666679 0.00000000 0.54166663 -6.93333340 0.43333334 0.54166663 -8.23333359 0.00000000 0.54166663 -7.80000019 0.43333334 0.54166663 -9.10000038 0.00000000 0.54166663 -8.66666698 0.43333334 0.54166663 -9.53333378 0.43333334 0.54166663 -9.96666622 0.00000000 0.54166663 -10.83333302 0.00000000 0.54166663 -10.39999962 0.43333334 0.54166663 -11.69999981 0.00000000 0.54166663 -11.26666641 0.43333334 0.54166663 -12.45833302 0.10833333 0.54166663 -12.13333321 0.43333334 0.54166663 -0.43333334 0.00000000 -0.54166663 -0.86666667 0.43333334 -0.54166663 -1.29999995 0.00000000 -0.54166663 -1.73333335 0.43333334 -0.54166663 -2.16666675 0.00000000 -0.54166663 -2.59999990 0.43333334 -0.54166663 -3.03333330 0.00000000 -0.54166663 -3.46666670 0.43333334 -0.54166663 -3.90000010 0.00000000 -0.54166663 -4.33333349 0.43333334 -0.54166663 -4.76666689 0.00000000 -0.54166663 -5.19999981 0.43333334 -0.54166663 -5.63333321 0.00000000 -0.54166663 -6.06666660 0.43333334 -0.54166663 -6.50000000 0.00000000 -0.54166663 -6.93333340 0.43333334 -0.54166663 -7.36666679 0.00000000 -0.54166663 -7.80000019 0.43333334 -0.54166663 -8.23333359 0.00000000 -0.54166663 -8.66666698 0.43333334 -0.54166663 -9.10000038 0.00000000 -0.54166663 -9.53333378 0.43333334 -0.54166663 -9.96666622 0.00000000 -0.54166663 -10.39999962 0.43333334 -0.54166663 -10.83333302 0.00000000 -0.54166663 -11.26666641 0.43333334 -0.54166663 -11.69999981 0.00000000 -0.54166663 -12.13333321 0.43333334 -0.54166663 -12.45833302 0.10833333 -0.54166663 0.54166669 -0.54166669 0.54166663 0.09171147 -0.09171147 1.16666663 -0.15000001 0.15000001 1.16666663 -0.15000001 0.15000001 1.31666660 -1.00000000 1.00000000 1.31666660 -1.00000000 1.00000000 1.18445509 -0.15000001 0.15000001 1.30868583 -1.00000000 1.00000000 1.16666663 0.54166669 -0.54166669 -0.54166663 -0.15000001 0.15000001 -1.16666663 0.09171147 -0.09171147 -1.16666663 -1.00000000 1.00000000 -1.31666660 -0.15000001 0.15000001 -1.31666660 -1.00000000 1.00000000 -1.18445509 -0.15000001 0.15000001 -1.30868583 -1.00000000 1.00000000 -1.16666663 -0.21666667 0.21666667 0.54166663 -0.21666667 0.21666667 -0.54166663 -0.21666667 0.21666667 0.00000000 -1.00000000 1.00000000 -0.61578522 -1.00000000 1.00000000 -0.54166663 -1.00000000 1.00000000 -0.45471011 -1.00000000 1.00000000 0.54166663 -1.00000000 1.00000000 0.61578522 -8.72916698 1.00000000 0.54166663 -8.72916698 1.00000000 0.75000000 -3.79166737 1.00000000 0.75000000 -3.72916675 1.00000000 0.54166663 -3.72916675 1.00000000 0.74699516 -3.72916675 1.00000000 -0.74699516 -3.72916675 1.00000000 -0.54166663 -3.79166737 1.00000000 -0.75000000 -8.72916698 1.00000000 -0.75000000 -8.72916698 1.00000000 -0.54166663 -3.72916675 1.00000000 -0.21739127 -8.72916698 1.00000000 0.21739134 -3.72916675 1.00000000 -0.75000000 -3.72916675 1.00000000 0.75000000 -8.72916698 2.50000000 0.75000000 -8.72916698 2.50000000 -0.75000000 -3.72916675 2.50000000 -0.75000000 -3.72916675 2.50000000 0.75000000
POLYGONS 357 1651
3 0 1 2 
3 3 1 0 
3 3 4 1 
3 5 4 3 
3 5 6 4 
3 7 6 5 
3 7 8 6 
3 9 8 7 
3 9 10 8 
3 11 10 9 
3 11 12 10 
3 13 12 11 
3 13 14 12 
3 15 14 13 
3 15 16 14 
3 17 16 15 
3 17 18 16 
3 19 18 17 
3 19 20 18 
3 21 20 19 
3 21 22 20 
3 23 22 21 
3 23 24 22 
3 25 24 23 
3 25 26 24 
3 27 26 25 
3 27 28 26 
3 29 28 27 
3 29 30 28 
3 31 30 29 
3 31 32 30 
3 33 32 31 
3 33 34 32 
3 35 34 33 
3 35 36 34 
3 37 36 35 
3 37 38 36 
3 39 38 37 
3 39 40 38 
3 41 40 39 
3 41 42 40 
3 43 42 41 
3 43 44 42 
3 45 44 43 
3 45 46 44 
3 47 46 45 
3 47 48 46 
3 49 48 47 
3 49 50 48 
3 51 50 49 
3 51 52 50 
3 53 52 51 
3 53 54 52 
3 55 54 53 
3 55 56 54 
3 57 56 55 
3 57 58 56 
3 59 58 57 
3 59 60 58 
3 61 60 59 
3 61 62 60 
3 63 62 61 
3 63 64 62 
3 65 64 63 
3 65 66 64 
3 67 66 65 
3 67 68 66 
3 69 68 67 
3 69 70 68 
3 71 70 69 
3 71 72 70 
3 73 72 71 
3 73 74 72 
3 75 74 73 
3 75 76 74 
3 77 76 75 
3 77 78 76 
3 79 78 77 
3 79 80 78 
3 81 80 79 
3 81 82 80 
3 83 82 81 
3 83 84 82 
3 85 84 83 
3 85 86 84 
3 87 86 85 
3 87 88 86 
3 89 88 87 
3 0 2 90 
4 11 9 7 5 
4 19 17 15 13 
4 27 25 23 21 
4 35 33 31 29 
4 43 41 39 37 
4 51 49 47 45 
4 59 57 55 53 
4 67 65 63 61 
4 75 73 71 69 
4 83 81 79 77 
4 91 89 87 85 
4 92 89 91 93 
3 94 93 95 
3 95 93 91 
3 96 97 98 
3 98 97 99 
3 97 100 99 
3 99 100 101 
3 100 102 101 
3 101 102 103 
3 102 104 103 
3 103 104 105 
3 104 106 105 
3 105 106 107 
3 106 108 107 
3 107 108 109 
3 108 110 109 
3 109 110 111 
3 110 112 111 
3 111 112 113 
3 112 114 113 
3 113 114 115 
3 114 116 115 
3 115 116 117 
3 116 118 117 
3 117 118 119 
3 118 120 119 
3 119 120 121 
3 120 122 121 
3 121 122 123 
3 122 124 123 
3 123 124 125 
3 124 126 125 
3 125 126 127 
3 126 128 127 
3 127 128 129 
3 128 130 129 
3 129 130 131 
3 130 132 131 
3 131 132 133 
3 132 134 133 
3 133 134 135 
3 134 136 135 
3 135 136 137 
3 136 138 137 
3 137 138 139 
3 138 140 139 
3 139 140 141 
3 140 142 141 
3 141 142 143 
3 142 144 143 
3 143 144 145 
3 144 146 145 
3 145 146 147 
3 146 148 147 
3 147 148 149 
3 148 150 149 
3 149 150 151 
3 150 152 151 
3 151 152 153 
3 152 154 153 
3 153 154 155 
3 154 156 155 
3 155 156 157 
3 156 158 157 
3 157 158 159 
3 158 160 159 
3 159 160 161 
3 160 162 161 
3 161 162 163 
3 162 164 163 
3 163 164 165 
3 164 166 165 
3 165 166 167 
3 166 168 167 
3 167 168 169 
3 168 170 169 
3 169 170 171 
3 170 172 171 
3 171 172 173 
3 172 174 173 
3 173 174 175 
3 174 176 175 
3 175 176 177 
3 176 178 177 
3 177 178 179 
3 178 180 179 
3 179 180 181 
3 180 182 181 
3 181 182 183 
3 182 184 183 
3 183 184 185 
3 186 96 98 
4 183 185 187 181 
4 173 175 177 179 
4 165 167 169 171 
4 157 159 161 163 
4 149 151 153 155 
4 141 143 145 147 
4 133 135 137 139 
4 125 127 129 131 
4 117 119 121 123 
4 109 111 113 115 
4 101 103 105 107 
4 185 188 189 187 
3 190 189 191 
3 187 189 190 
4 1 4 192 193 
6 4 6 8 10 194 192 
5 10 12 195 196 194 
5 12 14 16 18 195 
5 18 20 197 198 195 
6 20 26 28 199 200 197 
7 28 30 32 34 201 202 199 
4 34 36 203 201 
6 36 38 40 42 204 203 
5 42 44 205 206 204 
5 44 46 48 50 205 
5 50 52 207 208 205 
6 52 58 60 209 210 207 
7 60 62 64 66 211 212 209 
4 66 68 213 211 
6 68 70 72 74 214 213 
5 74 76 215 216 214 
5 76 78 80 82 215 
5 82 84 217 218 215 
6 84 86 88 219 220 217 
4 52 54 56 58 
4 20 22 24 26 
4 221 222 100 97 
6 222 223 106 104 102 100 
5 223 224 225 108 106 
5 225 114 112 110 108 
5 225 226 227 116 114 
5 227 122 120 118 116 
5 227 228 229 124 122 
7 229 230 231 130 128 126 124 
4 231 232 132 130 
6 232 233 138 136 134 132 
5 233 234 235 140 138 
5 235 146 144 142 140 
5 235 236 237 148 146 
5 237 154 152 150 148 
5 237 238 239 156 154 
7 239 240 241 162 160 158 156 
4 241 242 164 162 
6 242 243 170 168 166 164 
5 243 244 245 172 170 
5 245 178 176 174 172 
5 245 246 247 180 178 
6 247 248 249 184 182 180 
4 89 92 219 88 
4 184 249 188 185 
3 193 222 221 
3 222 193 192 
3 192 223 222 
3 223 192 194 
3 194 224 223 
3 224 194 196 
3 196 225 224 
3 225 196 195 
3 195 226 225 
3 226 195 198 
3 198 227 226 
3 227 198 197 
3 197 228 227 
3 228 197 200 
3 200 229 228 
3 229 200 199 
3 199 230 229 
3 230 199 202 
3 202 231 230 
3 231 202 201 
3 201 232 231 
3 232 201 203 
3 203 233 232 
3 233 203 204 
3 204 234 233 
3 234 204 206 
3 206 235 234 
3 235 206 205 
3 205 236 235 
3 236 205 208 
3 208 237 236 
3 237 208 207 
3 207 238 237 
3 238 207 210 
3 210 239 238 
3 239 210 209 
3 209 240 239 
3 240 209 212 
3 212 241 240 
3 241 212 211 
3 211 242 241 
3 242 211 213 
3 213 243 242 
3 243 213 214 
3 214 244 243 
3 244 214 216 
3 216 245 244 
3 245 216 215 
3 215 246 245 
3 246 215 218 
3 218 247 246 
3 247 218 217 
3 217 248 247 
3 248 217 220 
3 220 249 248 
3 249 220 219 
3 219 188 249 
3 188 219 92 
3 2 250 90 
4 0 90 251 3 
25 91 85 83 77 75 69 67 61 59 53 51 45 43 37 35 29 27 21 19 13 11 5 3 251 252 
4 94 95 253 254 
3 94 254 255 
4 95 91 256 253 
4 94 255 257 93 
3 91 252 256 
3 96 186 258 
25 187 259 260 99 101 107 109 115 117 123 125 131 133 139 141 147 149 155 157 163 165 171 173 179 181 
4 98 99 260 186 
4 190 191 261 262 
3 191 263 261 
4 187 190 262 264 
4 189 265 263 191 
3 187 264 259 
5 2 1 193 266 250 
5 96 258 267 221 97 
3 221 267 268 
4 221 268 266 193 
5 252 266 254 253 256 
5 252 251 90 250 266 
14 266 268 267 261 263 265 269 270 271 272 273 257 255 254 
5 267 259 264 262 261 
5 267 258 186 260 259 
4 274 92 93 275 
3 93 276 275 
4 273 272 277 278 
4 270 269 279 280 
3 281 189 282 
4 189 188 283 282 
4 271 270 280 284 
4 92 285 283 188 
4 272 271 284 277 
3 92 274 285 
4 279 269 265 286 
4 265 189 281 286 
4 276 93 257 287 
4 257 273 278 287 
3 288 289 275 
3 288 290 289 
3 291 290 288 
3 291 286 290 
6 289 282 283 285 274 275 
5 289 290 286 281 282 
8 287 278 277 284 280 279 286 291 
5 291 288 275 276 287 

CELL_DATA 357
FIELD FieldData 2
OrigCellIdsA 1 357 int
0 1 2 3 4 5 6 7 8 
9 10 11 12 13 14 15 16 17 
18 19 20 21 22 23 24 25 26 
27 28 29 30 31 32 33 34 35 
36 37 38 39 40 41 42 43 44 
45 46 47 48 49 50 51 52 53 
54 55 56 57 58 59 60 61 62 
63 64 65 66 67 68 69 70 71 
72 73 74 75 76 77 78 79 80 
81 82 83 84 85 86 87 88 89 
90 91 92 93 94 95 96 97 98 
99 100 101 102 103 104 105 106 107 
108 109 110 111 112 113 114 115 116 
117 118 119 120 121 122 123 124 125 
126 127 128 129 130 131 132 133 134 
135 136 137 138 139 140 141 142 143 
144 145 146 147 148 149 150 151 152 
153 154 155 156 157 158 159 160 161 
162 163 164 165 166 167 168 169 170 
171 172 173 174 175 176 177 178 179 
180 181 182 183 184 185 186 187 188 
189 190 191 192 193 194 195 196 197 
198 199 200 201 202 203 204 205 206 
207 208 209 210 211 212 213 214 215 
216 217 218 219 220 221 222 223 224 
225 226 227 228 229 230 231 232 233 
234 235 236 237 238 239 240 241 242 
243 244 245 246 247 248 249 250 251 
252 253 254 255 256 257 258 259 260 
261 262 263 264 265 266 267 268 269 
270 271 272 273 274 275 276 277 278 
279 280 281 282 283 284 285 286 287 
288 289 290 291 292 293 294 295 296 
297 298 299 300 301 302 303 304 305 
306 307 308 309 310 311 312 314 315 
316 317 318 319 320 321 323 324 325 
326 327 328 329 332 333 336 337 338 
339 340 330 330 330 331 331 331 334 
334 335 335 322 322 313 313 -1 -1 
-1 -1 -1 -1 -1 -1 
OrigCellIdsB 1 357 int
-1 -1 -1 -1 -1 -1 -1 -1 -1 
-1 -1 -1 -1 -1 -1 -1 -1 -1 
-1 -1 -1 -1 -1 -1 -1 -1 -1 
-1 -1 -1 -1 -1 -1 -1 -1 -1 
-1 -1 -1 -1 -1 -1 -1 -1 -1 
-1 -1 -1 -1 -1 -1 -1 -1 -1 
-1 -1 -1 -1 -1 -1 -1 -1 -1 
-1 -1 -1 -1 -1 -1 -1 -1 -1 
-1 -1 -1 -1 -1 -1 -1 -1 -1 
-1 -1 -1 -1 -1 -1 -1 -1 -1 
-1 -1 -1 -1 -1 -1 -1 -1 -1 
-1 -1 -1 -1 -1 -1 -1 -1 -1 
-1 -1 -1 -1 -1 -1 -1 -1 -1 
-1 -1 -1 -1 -1 -1 -1 -1 -1 
-1 -1 -1 -1 -1 -1 -1 -1 -1 
-1 -1 -1 -1 -1 -1 -1 -1 -1 
-1 -1 -1 -1 -1 -1 -1 -1 -1 
-1 -1 -1 -1 -1 -1 -1 -1 -1 
-1 -1 -1 -1 -1 -1 -1 -1 -1 
-1 -1 -1 -1 -1 -1 -1 -1 -1 
-1 -1 -1 -1 -1 -1 -1 -1 -1 
-1 -1 -1 -1 -1 -1 -1 -1 -1 
-1 -1 -1 -1 -1 -1 -1 -1 -1 
-1 -1 -1 -1 -1 -1 -1 -1 -1 
-1 -1 -1 -1 -1 -1 -1 -1 -1 
-1 -1 -1 -1 -1 -1 -1 -1 -1 
-1 -1 -1 -1 -1 -1 -1 -1 -1 
-1 -1 -1 -1 -1 -1 -1 -1 -1 
-1 -1 -1 -1 -1 -1 -1 -1 -1 
-1 -1 -1 -1 -1 -1 -1 -1 -1 
-1 -1 -1 -1 -1 -1 -1 -1 -1 
-1 -1 -1 -1 -1 -1 -1 -1 -1 
-1 -1 -1 -1 -1 -1 -1 -1 -1 
-1 -1 -1 -1 -1 -1 -1 -1 -1 
-1 -1 -1 -1 -1 -1 -1 -1 -1 
-1 -1 -1 -1 -1 -1 -1 -1 -1 
-1 -1 -1 -1 -1 -1 -1 -1 -1 
-1 -1 -1 -1 -1 -1 -1 -1 -1 
-1 -1 -1 -1 -1 -1 -1 3 4 
5 6 2 0 7 1 
POINT_DATA 292
SCALARS RegionId vtkIdType
LOOKUP_TABLE default
0 0 0 0 0 0 0 0 0 
0 0 0 0 0 0 0 0 0 
0 0 0 0 0 0 0 0 0 
0 0 0 0 0 0 0 0 0 
0 0 0 0 0 0 0 0 0 
0 0 0 0 0 0 0 0 0 
0 0 0 0 0 0 0 0 0 
0 0 0 0 0 0 0 0 0 
0 0 0 0 0 0 0 0 0 
0 0 0 0 0 0 0 0 0 
0 0 0 0 0 0 0 0 0 
0 0 0 0 0 0 0 0 0 
0 0 0 0 0 0 0 0 0 
0 0 0 0 0 0 0 0 0 
0 0 0 0 0 0 0 0 0 
0 0 0 0 0 0 0 0 0 
0 0 0 0 0 0 0 0 0 
0 0 0 0 0 0 0 0 0 
0 0 0 0 0 0 0 0 0 
0 0 0 0 0 0 0 0 0 
0 0 0 0 0 0 0 0 0 
0 0 0 0 0 0 0 0 0 
0 0 0 0 0 0 0 0 0 
0 0 0 0 0 0 0 0 0 
0 0 0 0 0 0 0 0 0 
0 0 0 0 0 0 0 0 0 
0 0 0 0 0 0 0 0 0 
0 0 0 0 0 0 0 0 0 
0 0 0 0 0 0 0 0 0 
0 0 0 0 0 0 0 0 0 
0 0 0 0 0 0 0 0 0 
0 0 0 0 0 0 0 0 0 
1 1 1 1 
