# vtk DataFile Version 4.0
vtk output
ASCII
DATASET POLYDATA
POINTS 292 double
0.466667 -0.541667 0.541667 0.466667 -0.391667 0.541667 0.466667 -0.541667 1.16667 
0.466667 -0.391667 1.16667 0.616667 -0.391667 0.541667 0.616667 -0.391667 1.16667 
0.616667 -0.541667 0.541667 0.616667 -0.541667 1.16667 1.55 -0.541667 0.541667 
1.55 -0.541667 1.16667 1.55 -0.391667 0.541667 1.55 -0.391667 1.16667 
1.7 -0.391667 0.541667 1.7 -0.391667 1.16667 1.7 -0.541667 0.541667 
1.7 -0.541667 1.16667 2.63333 -0.541667 0.541667 2.63333 -0.541667 1.16667 
2.63333 -0.391667 0.541667 2.63333 -0.391667 1.16667 2.78333 -0.391667 0.541667 
2.78333 -0.391667 1.16667 2.78333 -0.541667 0.541667 2.78333 -0.541667 1.16667 
3.71667 -0.541667 0.541667 3.71667 -0.541667 1.16667 3.71667 -0.391667 0.541667 
3.71667 -0.391667 1.16667 3.86667 -0.391667 0.541667 3.86667 -0.391667 1.16667 
3.86667 -0.541667 0.541667 3.86667 -0.541667 1.16667 4.8 -0.541667 0.541667 
4.8 -0.541667 1.16667 4.8 -0.391667 0.541667 4.8 -0.391667 1.16667 
4.95 -0.391667 0.541667 4.95 -0.391667 1.16667 4.95 -0.541667 0.541667 
4.95 -0.541667 1.16667 5.88333 -0.541667 0.541667 5.88333 -0.541667 1.16667 
5.88333 -0.391667 0.541667 5.88333 -0.391667 1.16667 6.03333 -0.391667 0.541667 
6.03333 -0.391667 1.16667 6.03333 -0.541667 0.541667 6.03333 -0.541667 1.16667 
6.96667 -0.541667 0.541667 6.96667 -0.541667 1.16667 6.96667 -0.391667 0.541667 
6.96667 -0.391667 1.16667 7.11667 -0.391667 0.541667 7.11667 -0.391667 1.16667 
7.11667 -0.541667 0.541667 7.11667 -0.541667 1.16667 8.05 -0.541667 0.541667 
8.05 -0.541667 1.16667 8.05 -0.391667 0.541667 8.05 -0.391667 1.16667 
8.2 -0.391667 0.541667 8.2 -0.391667 1.16667 8.2 -0.541667 0.541667 
8.2 -0.541667 1.16667 9.13333 -0.541667 0.541667 9.13333 -0.541667 1.16667 
9.13333 -0.391667 0.541667 9.13333 -0.391667 1.16667 9.28333 -0.391667 0.541667 
9.28333 -0.391667 1.16667 9.28333 -0.541667 0.541667 9.28333 -0.541667 1.16667 
10.2167 -0.541667 0.541667 10.2167 -0.541667 1.16667 10.2167 -0.391667 0.541667 
10.2167 -0.391667 1.16667 10.3667 -0.391667 0.541667 10.3667 -0.391667 1.16667 
10.3667 -0.541667 0.541667 10.3667 -0.541667 1.16667 11.3 -0.541667 0.541667 
11.3 -0.541667 1.16667 11.3 -0.391667 0.541667 11.3 -0.391667 1.16667 
11.45 -0.391667 0.541667 11.45 -0.391667 1.16667 11.45 -0.541667 0.541667 
11.45 -0.541667 1.16667 12.4583 -0.541667 0.541667 12.4583 -0.541667 1.16667 
-0.541667 -0.541667 1.16667 12.4583 0.15 1.16667 12.4583 1 1.16667 
12.4583 1 0.541667 12.4583 0.15 1.31667 12.4583 1 1.31667 
0.466667 -0.541667 -1.16667 0.466667 -0.391667 -0.541667 0.466667 -0.541667 -0.541667 
0.466667 -0.391667 -1.16667 0.616667 -0.391667 -0.541667 0.616667 -0.391667 -1.16667 
0.616667 -0.541667 -0.541667 0.616667 -0.541667 -1.16667 1.55 -0.541667 -0.541667 
1.55 -0.541667 -1.16667 1.55 -0.391667 -0.541667 1.55 -0.391667 -1.16667 
1.7 -0.391667 -0.541667 1.7 -0.391667 -1.16667 1.7 -0.541667 -0.541667 
1.7 -0.541667 -1.16667 2.63333 -0.541667 -0.541667 2.63333 -0.541667 -1.16667 
2.63333 -0.391667 -0.541667 2.63333 -0.391667 -1.16667 2.78333 -0.391667 -0.541667 
2.78333 -0.391667 -1.16667 2.78333 -0.541667 -0.541667 2.78333 -0.541667 -1.16667 
3.71667 -0.541667 -0.541667 3.71667 -0.541667 -1.16667 3.71667 -0.391667 -0.541667 
3.71667 -0.391667 -1.16667 3.86667 -0.391667 -0.541667 3.86667 -0.391667 -1.16667 
3.86667 -0.541667 -0.541667 3.86667 -0.541667 -1.16667 4.8 -0.541667 -0.541667 
4.8 -0.541667 -1.16667 4.8 -0.391667 -0.541667 4.8 -0.391667 -1.16667 
4.95 -0.391667 -0.541667 4.95 -0.391667 -1.16667 4.95 -0.541667 -0.541667 
4.95 -0.541667 -1.16667 5.88333 -0.541667 -0.541667 5.88333 -0.541667 -1.16667 
5.88333 -0.391667 -0.541667 5.88333 -0.391667 -1.16667 6.03333 -0.391667 -0.541667 
6.03333 -0.391667 -1.16667 6.03333 -0.541667 -0.541667 6.03333 -0.541667 -1.16667 
6.96667 -0.541667 -0.541667 6.96667 -0.541667 -1.16667 6.96667 -0.391667 -0.541667 
6.96667 -0.391667 -1.16667 7.11667 -0.391667 -0.541667 7.11667 -0.391667 -1.16667 
7.11667 -0.541667 -0.541667 7.11667 -0.541667 -1.16667 8.05 -0.541667 -0.541667 
8.05 -0.541667 -1.16667 8.05 -0.391667 -0.541667 8.05 -0.391667 -1.16667 
8.2 -0.391667 -0.541667 8.2 -0.391667 -1.16667 8.2 -0.541667 -0.541667 
8.2 -0.541667 -1.16667 9.13333 -0.541667 -0.541667 9.13333 -0.541667 -1.16667 
9.13333 -0.391667 -0.541667 9.13333 -0.391667 -1.16667 9.28333 -0.391667 -0.541667 
9.28333 -0.391667 -1.16667 9.28333 -0.541667 -0.541667 9.28333 -0.541667 -1.16667 
10.2167 -0.541667 -0.541667 10.2167 -0.541667 -1.16667 10.2167 -0.391667 -0.541667 
10.2167 -0.391667 -1.16667 10.3667 -0.391667 -0.541667 10.3667 -0.391667 -1.16667 
10.3667 -0.541667 -0.541667 10.3667 -0.541667 -1.16667 11.3 -0.541667 -0.541667 
11.3 -0.541667 -1.16667 11.3 -0.391667 -0.541667 11.3 -0.391667 -1.16667 
11.45 -0.391667 -0.541667 11.45 -0.391667 -1.16667 11.45 -0.541667 -0.541667 
11.45 -0.541667 -1.16667 12.4583 -0.541667 -0.541667 12.4583 -0.541667 -1.16667 
-0.541667 -0.541667 -1.16667 12.4583 0.15 -1.16667 12.4583 1 -1.16667 
12.4583 1 -0.541667 12.4583 1 -1.31667 12.4583 0.15 -1.31667 
0.433333 0 0.541667 0.866667 0.433333 0.541667 1.3 0 0.541667 
1.73333 0.433333 0.541667 2.16667 0 0.541667 2.6 0.433333 0.541667 
3.03333 0 0.541667 3.46667 0.433333 0.541667 3.9 0 0.541667 
4.33333 0.433333 0.541667 4.76667 0 0.541667 5.2 0.433333 0.541667 
5.63333 0 0.541667 6.06667 0.433333 0.541667 6.5 0 0.541667 
6.93333 0.433333 0.541667 7.36667 0 0.541667 7.8 0.433333 0.541667 
8.23333 0 0.541667 8.66667 0.433333 0.541667 9.1 0 0.541667 
9.53333 0.433333 0.541667 9.96667 0 0.541667 10.4 0.433333 0.541667 
10.8333 0 0.541667 11.2667 0.433333 0.541667 11.7 0 0.541667 
12.1333 0.433333 0.541667 12.4583 0.108333 0.541667 0.866667 0.433333 -0.541667 
0.433333 0 -0.541667 1.3 0 -0.541667 2.16667 0 -0.541667 
1.73333 0.433333 -0.541667 3.03333 0 -0.541667 2.6 0.433333 -0.541667 
3.9 0 -0.541667 3.46667 0.433333 -0.541667 4.76667 0 -0.541667 
4.33333 0.433333 -0.541667 5.2 0.433333 -0.541667 5.63333 0 -0.541667 
6.5 0 -0.541667 6.06667 0.433333 -0.541667 7.36667 0 -0.541667 
6.93333 0.433333 -0.541667 8.23333 0 -0.541667 7.8 0.433333 -0.541667 
9.1 0 -0.541667 8.66667 0.433333 -0.541667 9.53333 0.433333 -0.541667 
9.96667 0 -0.541667 10.8333 0 -0.541667 10.4 0.433333 -0.541667 
11.7 0 -0.541667 11.2667 0.433333 -0.541667 12.4583 0.108333 -0.541667 
12.1333 0.433333 -0.541667 -0.541667 -0.541667 0.541667 -0.0917115 -0.0917115 1.16667 
0.15 0.15 1.16667 1 1 1.31667 0.15 0.15 1.31667 
1 1 1.18446 0.15 0.15 1.30869 1 1 1.16667 
-0.541667 -0.541667 -0.541667 -0.0917115 -0.0917115 -1.16667 0.15 0.15 -1.16667 
0.15 0.15 -1.31667 1 1 -1.31667 1 1 -1.18446 
0.15 0.15 -1.30869 1 1 -1.16667 0.216667 0.216667 0.541667 
0.216667 0.216667 -0.541667 0.216667 0.216667 2.98023e-08 1 1 0.615785 
1 1 0.541667 1 1 -0.45471 1 1 -0.541667 
1 1 -0.615785 8.72917 1 0.75 8.72917 1 0.541667 
3.79167 1 0.75 3.72917 1 0.746995 3.72917 1 0.541667 
3.72917 1 -0.541667 3.72917 1 -0.746995 8.72917 1 -0.75 
3.79167 1 -0.75 8.72917 1 -0.541667 3.72917 1 -0.217391 
8.72917 1 0.217391 3.72917 1 -0.75 3.72917 1 0.75 
8.72917 2.5 -0.75 8.72917 2.5 0.75 3.72917 2.5 -0.75 
3.72917 2.5 0.75 
POLYGONS 357 1651
3 0 1 2 
3 2 1 3 
3 1 4 3 
3 3 4 5 
3 4 6 5 
3 5 6 7 
3 6 8 7 
3 7 8 9 
3 8 10 9 
3 9 10 11 
3 10 12 11 
3 11 12 13 
3 12 14 13 
3 13 14 15 
3 14 16 15 
3 15 16 17 
3 16 18 17 
3 17 18 19 
3 18 20 19 
3 19 20 21 
3 20 22 21 
3 21 22 23 
3 22 24 23 
3 23 24 25 
3 24 26 25 
3 25 26 27 
3 26 28 27 
3 27 28 29 
3 28 30 29 
3 29 30 31 
3 30 32 31 
3 31 32 33 
3 32 34 33 
3 33 34 35 
3 34 36 35 
3 35 36 37 
3 36 38 37 
3 37 38 39 
3 38 40 39 
3 39 40 41 
3 40 42 41 
3 41 42 43 
3 42 44 43 
3 43 44 45 
3 44 46 45 
3 45 46 47 
3 46 48 47 
3 47 48 49 
3 48 50 49 
3 49 50 51 
3 50 52 51 
3 51 52 53 
3 52 54 53 
3 53 54 55 
3 54 56 55 
3 55 56 57 
3 56 58 57 
3 57 58 59 
3 58 60 59 
3 59 60 61 
3 60 62 61 
3 61 62 63 
3 62 64 63 
3 63 64 65 
3 64 66 65 
3 65 66 67 
3 66 68 67 
3 67 68 69 
3 68 70 69 
3 69 70 71 
3 70 72 71 
3 71 72 73 
3 72 74 73 
3 73 74 75 
3 74 76 75 
3 75 76 77 
3 76 78 77 
3 77 78 79 
3 78 80 79 
3 79 80 81 
3 80 82 81 
3 81 82 83 
3 82 84 83 
3 83 84 85 
3 84 86 85 
3 85 86 87 
3 86 88 87 
3 87 88 89 
3 90 0 2 
4 5 7 9 11 
4 13 15 17 19 
4 21 23 25 27 
4 29 31 33 35 
4 37 39 41 43 
4 45 47 49 51 
4 53 55 57 59 
4 61 63 65 67 
4 69 71 73 75 
4 77 79 81 83 
4 85 87 89 91 
4 92 91 89 93 
3 94 92 95 
3 91 92 94 
3 96 97 98 
3 99 97 96 
3 99 100 97 
3 101 100 99 
3 101 102 100 
3 103 102 101 
3 103 104 102 
3 105 104 103 
3 105 106 104 
3 107 106 105 
3 107 108 106 
3 109 108 107 
3 109 110 108 
3 111 110 109 
3 111 112 110 
3 113 112 111 
3 113 114 112 
3 115 114 113 
3 115 116 114 
3 117 116 115 
3 117 118 116 
3 119 118 117 
3 119 120 118 
3 121 120 119 
3 121 122 120 
3 123 122 121 
3 123 124 122 
3 125 124 123 
3 125 126 124 
3 127 126 125 
3 127 128 126 
3 129 128 127 
3 129 130 128 
3 131 130 129 
3 131 132 130 
3 133 132 131 
3 133 134 132 
3 135 134 133 
3 135 136 134 
3 137 136 135 
3 137 138 136 
3 139 138 137 
3 139 140 138 
3 141 140 139 
3 141 142 140 
3 143 142 141 
3 143 144 142 
3 145 144 143 
3 145 146 144 
3 147 146 145 
3 147 148 146 
3 149 148 147 
3 149 150 148 
3 151 150 149 
3 151 152 150 
3 153 152 151 
3 153 154 152 
3 155 154 153 
3 155 156 154 
3 157 156 155 
3 157 158 156 
3 159 158 157 
3 159 160 158 
3 161 160 159 
3 161 162 160 
3 163 162 161 
3 163 164 162 
3 165 164 163 
3 165 166 164 
3 167 166 165 
3 167 168 166 
3 169 168 167 
3 169 170 168 
3 171 170 169 
3 171 172 170 
3 173 172 171 
3 173 174 172 
3 175 174 173 
3 175 176 174 
3 177 176 175 
3 177 178 176 
3 179 178 177 
3 179 180 178 
3 181 180 179 
3 181 182 180 
3 183 182 181 
3 183 184 182 
3 185 184 183 
3 96 98 186 
4 181 187 185 183 
4 179 177 175 173 
4 171 169 167 165 
4 163 161 159 157 
4 155 153 151 149 
4 147 145 143 141 
4 139 137 135 133 
4 131 129 127 125 
4 123 121 119 117 
4 115 113 111 109 
4 107 105 103 101 
4 187 188 189 185 
3 190 188 191 
3 191 188 187 
4 192 193 4 1 
6 193 194 10 8 6 4 
5 194 195 196 12 10 
5 196 18 16 14 12 
5 196 197 198 20 18 
6 198 199 200 28 26 20 
7 200 201 202 34 32 30 28 
4 202 203 36 34 
6 203 204 42 40 38 36 
5 204 205 206 44 42 
5 206 50 48 46 44 
5 206 207 208 52 50 
6 208 209 210 60 58 52 
7 210 211 212 66 64 62 60 
4 212 213 68 66 
6 213 214 74 72 70 68 
5 214 215 216 76 74 
5 216 82 80 78 76 
5 216 217 218 84 82 
6 218 219 220 88 86 84 
4 58 56 54 52 
4 26 24 22 20 
4 97 100 221 222 
6 100 102 104 106 223 221 
5 106 108 224 225 223 
5 108 110 112 114 224 
5 114 116 226 227 224 
5 116 118 120 122 226 
5 122 124 228 229 226 
7 124 126 128 130 230 231 228 
4 130 132 232 230 
6 132 134 136 138 233 232 
5 138 140 234 235 233 
5 140 142 144 146 234 
5 146 148 236 237 234 
5 148 150 152 154 236 
5 154 156 238 239 236 
7 156 158 160 162 240 241 238 
4 162 164 242 240 
6 164 166 168 170 243 242 
5 170 172 244 245 243 
5 172 174 176 178 244 
5 178 180 246 247 244 
6 180 182 184 248 249 246 
4 88 220 93 89 
4 185 189 248 184 
3 222 221 192 
3 193 192 221 
3 221 223 193 
3 194 193 223 
3 223 225 194 
3 195 194 225 
3 225 224 195 
3 196 195 224 
3 224 227 196 
3 197 196 227 
3 227 226 197 
3 198 197 226 
3 226 229 198 
3 199 198 229 
3 229 228 199 
3 200 199 228 
3 228 231 200 
3 201 200 231 
3 231 230 201 
3 202 201 230 
3 230 232 202 
3 203 202 232 
3 232 233 203 
3 204 203 233 
3 233 235 204 
3 205 204 235 
3 235 234 205 
3 206 205 234 
3 234 237 206 
3 207 206 237 
3 237 236 207 
3 208 207 236 
3 236 239 208 
3 209 208 239 
3 239 238 209 
3 210 209 238 
3 238 241 210 
3 211 210 241 
3 241 240 211 
3 212 211 240 
3 240 242 212 
3 213 212 242 
3 242 243 213 
3 214 213 243 
3 243 245 214 
3 215 214 245 
3 245 244 215 
3 216 215 244 
3 244 247 216 
3 217 216 247 
3 247 246 217 
3 218 217 246 
3 246 249 218 
3 219 218 249 
3 249 248 219 
3 220 219 248 
3 248 189 220 
3 93 220 189 
3 90 250 0 
4 3 251 90 2 
25 252 251 3 5 11 13 19 21 27 29 35 37 43 45 51 53 59 61 67 69 75 77 83 85 91 
4 253 254 94 95 
3 255 253 95 
4 254 256 91 94 
4 92 257 255 95 
3 256 252 91 
3 258 186 98 
25 181 179 173 171 165 163 157 155 149 147 141 139 133 131 125 123 117 115 109 107 101 99 259 260 187 
4 186 259 99 96 
4 261 262 190 191 
3 262 263 190 
4 264 261 191 187 
4 190 263 265 188 
3 260 264 187 
5 250 266 192 1 0 
5 97 222 267 258 98 
3 268 267 222 
4 192 266 268 222 
5 256 254 253 266 252 
5 266 250 90 251 252 
14 253 255 257 269 270 271 272 273 265 263 262 267 268 266 
5 262 261 264 260 267 
5 260 259 186 258 267 
4 274 92 93 275 
3 274 276 92 
4 277 278 270 269 
4 279 280 273 272 
3 281 188 282 
4 281 283 189 188 
4 284 279 272 271 
4 189 283 285 93 
4 278 284 271 270 
3 285 275 93 
4 286 265 273 280 
4 286 282 188 265 
4 287 257 92 276 
4 287 277 269 257 
3 274 288 289 
3 288 290 289 
3 289 290 291 
3 290 286 291 
6 274 275 285 283 281 288 
5 281 282 286 290 288 
8 291 286 280 279 284 278 277 287 
5 287 276 274 289 291 

CELL_DATA 357
FIELD FieldData 2
OrigCellIdsA 1 357 int
0 1 2 3 4 5 6 7 8 
9 10 11 12 13 14 15 16 17 
18 19 20 21 22 23 24 25 26 
27 28 29 30 31 32 33 34 35 
36 37 38 39 40 41 42 43 44 
45 46 47 48 49 50 51 52 53 
54 55 56 57 58 59 60 61 62 
63 64 65 66 67 68 69 70 71 
72 73 74 75 76 77 78 79 80 
81 82 83 84 85 86 87 88 89 
90 91 92 93 94 95 96 97 98 
99 100 101 102 103 104 105 106 107 
108 109 110 111 112 113 114 115 116 
117 118 119 120 121 122 123 124 125 
126 127 128 129 130 131 132 133 134 
135 136 137 138 139 140 141 142 143 
144 145 146 147 148 149 150 151 152 
153 154 155 156 157 158 159 160 161 
162 163 164 165 166 167 168 169 170 
171 172 173 174 175 176 177 178 179 
180 181 182 183 184 185 186 187 188 
189 190 191 192 193 194 195 196 197 
198 199 200 201 202 203 204 205 206 
207 208 209 210 211 212 213 214 215 
216 217 218 219 220 221 222 223 224 
225 226 227 228 229 230 231 232 233 
234 235 236 237 238 239 240 241 242 
243 244 245 246 247 248 249 250 251 
252 253 254 255 256 257 258 259 260 
261 262 263 264 265 266 267 268 269 
270 271 272 273 274 275 276 277 278 
279 280 281 282 283 284 285 286 287 
288 289 290 291 292 293 294 295 296 
297 298 299 300 301 302 303 304 305 
306 307 308 309 310 311 312 314 315 
316 317 318 319 320 321 323 324 325 
326 327 328 329 332 333 336 337 338 
339 340 330 330 330 331 331 331 334 
334 335 335 322 322 313 313 -1 -1 
-1 -1 -1 -1 -1 -1 
OrigCellIdsB 1 357 int
-1 -1 -1 -1 -1 -1 -1 -1 -1 
-1 -1 -1 -1 -1 -1 -1 -1 -1 
-1 -1 -1 -1 -1 -1 -1 -1 -1 
-1 -1 -1 -1 -1 -1 -1 -1 -1 
-1 -1 -1 -1 -1 -1 -1 -1 -1 
-1 -1 -1 -1 -1 -1 -1 -1 -1 
-1 -1 -1 -1 -1 -1 -1 -1 -1 
-1 -1 -1 -1 -1 -1 -1 -1 -1 
-1 -1 -1 -1 -1 -1 -1 -1 -1 
-1 -1 -1 -1 -1 -1 -1 -1 -1 
-1 -1 -1 -1 -1 -1 -1 -1 -1 
-1 -1 -1 -1 -1 -1 -1 -1 -1 
-1 -1 -1 -1 -1 -1 -1 -1 -1 
-1 -1 -1 -1 -1 -1 -1 -1 -1 
-1 -1 -1 -1 -1 -1 -1 -1 -1 
-1 -1 -1 -1 -1 -1 -1 -1 -1 
-1 -1 -1 -1 -1 -1 -1 -1 -1 
-1 -1 -1 -1 -1 -1 -1 -1 -1 
-1 -1 -1 -1 -1 -1 -1 -1 -1 
-1 -1 -1 -1 -1 -1 -1 -1 -1 
-1 -1 -1 -1 -1 -1 -1 -1 -1 
-1 -1 -1 -1 -1 -1 -1 -1 -1 
-1 -1 -1 -1 -1 -1 -1 -1 -1 
-1 -1 -1 -1 -1 -1 -1 -1 -1 
-1 -1 -1 -1 -1 -1 -1 -1 -1 
-1 -1 -1 -1 -1 -1 -1 -1 -1 
-1 -1 -1 -1 -1 -1 -1 -1 -1 
-1 -1 -1 -1 -1 -1 -1 -1 -1 
-1 -1 -1 -1 -1 -1 -1 -1 -1 
-1 -1 -1 -1 -1 -1 -1 -1 -1 
-1 -1 -1 -1 -1 -1 -1 -1 -1 
-1 -1 -1 -1 -1 -1 -1 -1 -1 
-1 -1 -1 -1 -1 -1 -1 -1 -1 
-1 -1 -1 -1 -1 -1 -1 -1 -1 
-1 -1 -1 -1 -1 -1 -1 -1 -1 
-1 -1 -1 -1 -1 -1 -1 -1 -1 
-1 -1 -1 -1 -1 -1 -1 -1 -1 
-1 -1 -1 -1 -1 -1 -1 -1 -1 
-1 -1 -1 -1 -1 -1 -1 3 4 
5 6 2 0 7 1 
POINT_DATA 292
SCALARS RegionId vtkIdType
LOOKUP_TABLE default
0 0 0 0 0 0 0 0 0 
0 0 0 0 0 0 0 0 0 
0 0 0 0 0 0 0 0 0 
0 0 0 0 0 0 0 0 0 
0 0 0 0 0 0 0 0 0 
0 0 0 0 0 0 0 0 0 
0 0 0 0 0 0 0 0 0 
0 0 0 0 0 0 0 0 0 
0 0 0 0 0 0 0 0 0 
0 0 0 0 0 0 0 0 0 
0 0 0 0 0 0 0 0 0 
0 0 0 0 0 0 0 0 0 
0 0 0 0 0 0 0 0 0 
0 0 0 0 0 0 0 0 0 
0 0 0 0 0 0 0 0 0 
0 0 0 0 0 0 0 0 0 
0 0 0 0 0 0 0 0 0 
0 0 0 0 0 0 0 0 0 
0 0 0 0 0 0 0 0 0 
0 0 0 0 0 0 0 0 0 
0 0 0 0 0 0 0 0 0 
0 0 0 0 0 0 0 0 0 
0 0 0 0 0 0 0 0 0 
0 0 0 0 0 0 0 0 0 
0 0 0 0 0 0 0 0 0 
0 0 0 0 0 0 0 0 0 
0 0 0 0 0 0 0 0 0 
0 0 0 0 0 0 0 0 0 
0 0 0 0 0 0 0 0 0 
0 0 0 0 0 0 0 0 0 
0 0 0 0 0 0 0 0 0 
0 0 0 0 0 0 0 0 0 
1 1 1 1 
