# vtk DataFile Version 4.0
vtk output
ASCII
DATASET POLYDATA
POINTS 54 double
2.08333 1 1.16667 2.08333 -0.541667 1.16667 2.08333 1 0.541667 
1.23333 -0.541667 1.16667 -0.541667 -0.541667 1.16667 2.08333 -0.541667 0.541667 
1.23333 0.15 1.31667 1.23333 -0.541667 1.31667 2.08333 -0.541667 1.31667 
2.08333 1 1.31667 1.23333 0.15 1.16667 2.08333 -0.541667 -1.16667 
2.08333 1 -1.16667 2.08333 1 -0.541667 1.23333 -0.541667 -1.16667 
2.08333 -0.541667 -0.541667 -0.541667 -0.541667 -1.16667 1.23333 -0.541667 -1.31667 
1.23333 0.15 -1.31667 2.08333 -0.541667 -1.31667 2.08333 1 -1.31667 
1.23333 0.15 -1.16667 0.433333 0 0.541667 1.3 0 0.541667 
-0.541667 -0.541667 0.541667 0.866667 0.433333 0.541667 1.73333 0.433333 0.541667 
2.08333 0.0833333 0.541667 1.3 0 -0.541667 2.08333 0.0833333 -0.541667 
1.73333 0.433333 -0.541667 0.433333 0 -0.541667 -0.541667 -0.541667 -0.541667 
0.866667 0.433333 -0.541667 0.15 0.15 1.16667 1 1 0.90873 
1 1 1.16667 1 1 1.31667 0.15 0.15 1.31667 
1 1 1.25476 0.15 0.15 1.25822 0.15 0.15 -1.16667 
1 1 -1.16667 1 1 -0.90873 0.15 0.15 -1.31667 
1 1 -1.31667 1 1 -1.25476 0.15 0.15 -1.25822 
0.216667 0.216667 0.541667 0.216667 0.216667 -0.541667 1 1 0.541667 
1 1 -0.541667 0.216667 0.216667 2.98023e-08 1 1 -0.0216666 

POLYGONS 65 299
3 0 1 2 
4 1 3 4 5 
3 6 3 7 
3 7 1 8 
3 8 0 9 
3 10 3 6 
3 3 1 7 
3 1 0 8 
3 11 12 13 
4 14 11 15 16 
3 17 14 18 
3 19 11 17 
3 20 12 19 
3 18 14 21 
3 17 11 14 
3 19 12 11 
4 22 23 5 24 
3 22 25 23 
4 23 26 27 5 
4 28 15 29 30 
4 28 31 32 15 
3 28 33 31 
4 5 27 2 1 
4 11 13 29 15 
3 31 33 22 
3 25 22 33 
3 33 28 25 
3 23 25 28 
3 28 30 23 
3 26 23 30 
3 30 29 26 
3 27 26 29 
3 29 13 27 
3 2 27 13 
3 4 24 5 
4 3 10 34 4 
3 35 36 0 
4 6 9 37 38 
4 6 7 8 9 
3 39 37 9 
4 38 40 10 6 
4 0 36 39 9 
3 40 34 10 
3 32 16 15 
4 16 41 21 14 
3 42 43 12 
4 18 20 19 17 
4 18 44 45 20 
3 45 46 20 
4 47 44 18 21 
4 20 46 42 12 
3 41 47 21 
3 24 48 22 
3 31 49 32 
4 2 50 35 0 
4 12 43 51 13 
3 52 49 31 
4 22 48 52 31 
4 13 51 53 2 
3 53 50 2 
5 40 38 37 48 34 
4 48 24 4 34 
14 37 39 36 35 50 53 51 43 42 46 45 49 52 48 
5 45 44 47 41 49 
4 41 16 32 49 

CELL_DATA 65
FIELD FieldData 2
OrigCellIdsA 1 65 int
3 6 8 9 10 14 15 16 23 
26 28 29 30 34 35 36 42 43 
44 45 46 47 50 53 56 57 58 
59 60 61 62 63 64 65 1 2 
4 7 7 11 13 17 19 21 22 
24 27 27 31 33 37 39 41 48 
51 52 54 55 66 67 -1 -1 -1 
-1 -1 
OrigCellIdsB 1 65 int
-1 -1 -1 -1 -1 -1 -1 -1 -1 
-1 -1 -1 -1 -1 -1 -1 -1 -1 
-1 -1 -1 -1 -1 -1 -1 -1 -1 
-1 -1 -1 -1 -1 -1 -1 -1 -1 
-1 -1 -1 -1 -1 -1 -1 -1 -1 
-1 -1 -1 -1 -1 -1 -1 -1 -1 
-1 -1 -1 -1 -1 -1 0 0 0 
0 0 
POINT_DATA 54
SCALARS RegionId vtkIdType
LOOKUP_TABLE default
0 0 0 0 0 0 0 0 0 
0 0 0 0 0 0 0 0 0 
0 0 0 0 0 0 0 0 0 
0 0 0 0 0 0 0 0 0 
0 0 0 0 0 0 0 0 0 
0 0 0 0 0 0 0 0 0 

